 Entering Gaussian System, Link 0=g09
 Input=/home/nqtcm/Downloads/estrutura47freq_LANL2DZ_TZVP.com
 Output=/home/nqtcm/Downloads/estrutura47freq_LANL2DZ_TZVP.log
 Initial command:
 /scr/programas/g09/l1.exe "/scr/nqtcm/Gau-21467.inp" -scrdir="/scr/nqtcm/"
 Entering Link 1 = /scr/programas/g09/l1.exe PID=     21469.
  
 Copyright (c) 1988,1990,1992,1993,1995,1998,2003,2009,2013,
            Gaussian, Inc.  All Rights Reserved.
  
 This is part of the Gaussian(R) 09 program.  It is based on
 the Gaussian(R) 03 system (copyright 2003, Gaussian, Inc.),
 the Gaussian(R) 98 system (copyright 1998, Gaussian, Inc.),
 the Gaussian(R) 94 system (copyright 1995, Gaussian, Inc.),
 the Gaussian 92(TM) system (copyright 1992, Gaussian, Inc.),
 the Gaussian 90(TM) system (copyright 1990, Gaussian, Inc.),
 the Gaussian 88(TM) system (copyright 1988, Gaussian, Inc.),
 the Gaussian 86(TM) system (copyright 1986, Carnegie Mellon
 University), and the Gaussian 82(TM) system (copyright 1983,
 Carnegie Mellon University). Gaussian is a federally registered
 trademark of Gaussian, Inc.
  
 This software contains proprietary and confidential information,
 including trade secrets, belonging to Gaussian, Inc.
  
 This software is provided under written license and may be
 used, copied, transmitted, or stored only in accord with that
 written license.
  
 The following legend is applicable only to US Government
 contracts under FAR:
  
                    RESTRICTED RIGHTS LEGEND
  
 Use, reproduction and disclosure by the US Government is
 subject to restrictions as set forth in subparagraphs (a)
 and (c) of the Commercial Computer Software - Restricted
 Rights clause in FAR 52.227-19.
  
 Gaussian, Inc.
 340 Quinnipiac St., Bldg. 40, Wallingford CT 06492
  
  
 ---------------------------------------------------------------
 Warning -- This program may not be used in any manner that
 competes with the business of Gaussian, Inc. or will provide
 assistance to any competitor of Gaussian, Inc.  The licensee
 of this program is prohibited from giving any competitor of
 Gaussian, Inc. access to this program.  By using this program,
 the user acknowledges that Gaussian, Inc. is engaged in the
 business of creating and licensing software in the field of
 computational chemistry and represents and warrants to the
 licensee that it is not a competitor of Gaussian, Inc. and that
 it will not use this program in any manner prohibited above.
 ---------------------------------------------------------------
  

 Cite this work as:
 Gaussian 09, Revision D.01,
 M. J. Frisch, G. W. Trucks, H. B. Schlegel, G. E. Scuseria, 
 M. A. Robb, J. R. Cheeseman, G. Scalmani, V. Barone, B. Mennucci, 
 G. A. Petersson, H. Nakatsuji, M. Caricato, X. Li, H. P. Hratchian, 
 A. F. Izmaylov, J. Bloino, G. Zheng, J. L. Sonnenberg, M. Hada, 
 M. Ehara, K. Toyota, R. Fukuda, J. Hasegawa, M. Ishida, T. Nakajima, 
 Y. Honda, O. Kitao, H. Nakai, T. Vreven, J. A. Montgomery, Jr., 
 J. E. Peralta, F. Ogliaro, M. Bearpark, J. J. Heyd, E. Brothers, 
 K. N. Kudin, V. N. Staroverov, T. Keith, R. Kobayashi, J. Normand, 
 K. Raghavachari, A. Rendell, J. C. Burant, S. S. Iyengar, J. Tomasi, 
 M. Cossi, N. Rega, J. M. Millam, M. Klene, J. E. Knox, J. B. Cross, 
 V. Bakken, C. Adamo, J. Jaramillo, R. Gomperts, R. E. Stratmann, 
 O. Yazyev, A. J. Austin, R. Cammi, C. Pomelli, J. W. Ochterski, 
 R. L. Martin, K. Morokuma, V. G. Zakrzewski, G. A. Voth, 
 P. Salvador, J. J. Dannenberg, S. Dapprich, A. D. Daniels, 
 O. Farkas, J. B. Foresman, J. V. Ortiz, J. Cioslowski, 
 and D. J. Fox, Gaussian, Inc., Wallingford CT, 2013.
 
 ******************************************
 Gaussian 09:  EM64L-G09RevD.01 24-Apr-2013
                11-May-2022 
 ******************************************
 %mem=15Gb
 %nproc=8
 Will use up to    8 processors via shared memory.
 ----------------------------------------------------------
 #PBEPBE/gen scf=maxcycle=200 NMR=GIAO Scrf=(solvent=water)
 ----------------------------------------------------------
 1/38=1/1;
 2/12=2,17=6,18=5,40=1/2;
 3/5=7,11=2,16=1,25=1,30=1,70=2201,72=1,74=1009/1,2,8,3;
 4//1;
 5/5=2,7=200,38=5,53=1/2;
 8/6=1,10=90,11=11/1;
 10/13=100,45=16/2;
 6/7=2,8=2,9=2,10=2,28=1/1;
 99/9=1/99;
 Leave Link    1 at Wed May 11 14:30:42 2022, MaxMem=  2013265920 cpu:         0.4
 (Enter /scr/programas/g09/l101.exe)
 ------------
 estrutura 47
 ------------
 Symbolic Z-matrix:
 Charge = -2 Multiplicity = 1
 Pt                   -0.07673  -0.13963  -0.21126 
 N                    -2.12888  -0.43024  -0.61849 
 N                     0.1782   -2.23586  -0.22297 
 O                    -2.41889  -1.27688  -1.4443 
 O                    -2.9528    0.24114  -0.02977 
 O                     1.14227  -2.70693  -0.79218 
 O                    -0.66597  -2.91042   0.33879 
 Br                   -0.51297  -0.21679   2.28024 
 Br                   -0.40888   2.41583  -0.22563 
 Br                    2.43056   0.19788   0.27418 
 Cl                    0.35283  -0.06552  -2.57174 
 
 NAtoms=     11 NQM=       11 NQMF=       0 NMMI=      0 NMMIF=      0
                NMic=       0 NMicF=      0.
                    Isotopes and Nuclear Properties:
 (Nuclear quadrupole moments (NQMom) in fm**2, nuclear magnetic moments (NMagM)
  in nuclear magnetons)

  Atom         1           2           3           4           5           6           7           8           9          10
 IAtWgt=         195          14          14          16          16          16          16          79          79          79
 AtmWgt= 194.9648000  14.0030740  14.0030740  15.9949146  15.9949146  15.9949146  15.9949146  78.9183361  78.9183361  78.9183361
 NucSpn=           1           2           2           0           0           0           0           3           3           3
 AtZEff=   0.0000000   0.0000000   0.0000000   0.0000000   0.0000000   0.0000000   0.0000000   0.0000000   0.0000000   0.0000000
 NQMom=    0.0000000   2.0440000   2.0440000   0.0000000   0.0000000   0.0000000   0.0000000  31.3000000  31.3000000  31.3000000
 NMagM=    0.6095000   0.4037610   0.4037610   0.0000000   0.0000000   0.0000000   0.0000000   2.1063990   2.1063990   2.1063990
 AtZNuc=  78.0000000   7.0000000   7.0000000   8.0000000   8.0000000   8.0000000   8.0000000  35.0000000  35.0000000  35.0000000

  Atom        11
 IAtWgt=          35
 AtmWgt=  34.9688527
 NucSpn=           3
 AtZEff=   0.0000000
 NQMom=   -8.1650000
 NMagM=    0.8218740
 AtZNuc=  17.0000000
 Leave Link  101 at Wed May 11 14:30:42 2022, MaxMem=  2013265920 cpu:         0.6
 (Enter /scr/programas/g09/l202.exe)
                          Input orientation:                          
 ---------------------------------------------------------------------
 Center     Atomic      Atomic             Coordinates (Angstroms)
 Number     Number       Type             X           Y           Z
 ---------------------------------------------------------------------
      1         78           0       -0.076727   -0.139630   -0.211256
      2          7           0       -2.128876   -0.430240   -0.618487
      3          7           0        0.178201   -2.235864   -0.222972
      4          8           0       -2.418893   -1.276877   -1.444304
      5          8           0       -2.952796    0.241143   -0.029772
      6          8           0        1.142273   -2.706926   -0.792182
      7          8           0       -0.665970   -2.910419    0.338789
      8         35           0       -0.512972   -0.216785    2.280235
      9         35           0       -0.408884    2.415829   -0.225634
     10         35           0        2.430556    0.197877    0.274184
     11         17           0        0.352826   -0.065515   -2.571738
 ---------------------------------------------------------------------
                    Distance matrix (angstroms):
                    1          2          3          4          5
     1  Pt   0.000000
     2  N    2.112252   0.000000
     3  N    2.111711   2.956233   0.000000
     4  O    2.880882   1.217735   3.025922   0.000000
     5  O    2.906836   1.214983   3.997003   2.142507   0.000000
     6  O    2.900766   3.989221   1.214633   3.892584   5.103133
     7  O    2.885659   3.034429   1.217877   2.986741   3.911234
     8  Br   2.530571   3.325552   3.289445   4.316077   3.390954
     9  Br   2.576995   3.348554   4.688595   4.377370   3.352478
    10  Br   2.576049   4.688263   3.353112   5.352126   5.392100
    11  Cl   2.400392   3.179160   3.202750   3.228147   4.181240
                    6          7          8          9         10
     6  O    0.000000
     7  O    2.142486   0.000000
     8  Br   4.287235   3.323896   0.000000
     9  Br   5.382349   5.362237   3.636051   0.000000
    10  Br   3.351819   4.387955   3.586160   3.637520   0.000000
    11  Cl   3.281326   4.195544   4.930936   3.498782   3.533498
                   11
    11  Cl   0.000000
 Stoichiometry    Br3ClN2O4Pt(2-)
 Framework group  C1[X(Br3ClN2O4Pt)]
 Deg. of freedom    27
 Full point group                 C1      NOp   1
 Largest Abelian subgroup         C1      NOp   1
 Largest concise Abelian subgroup C1      NOp   1
                         Standard orientation:                         
 ---------------------------------------------------------------------
 Center     Atomic      Atomic             Coordinates (Angstroms)
 Number     Number       Type             X           Y           Z
 ---------------------------------------------------------------------
      1         78           0       -0.076735   -0.139626   -0.211256
      2          7           0       -2.128899   -0.430125   -0.618487
      3          7           0        0.178080   -2.235874   -0.222972
      4          8           0       -2.418962   -1.276746   -1.444304
      5          8           0       -2.952783    0.241303   -0.029772
      6          8           0        1.142126   -2.706988   -0.792182
      7          8           0       -0.666128   -2.910383    0.338789
      8         35           0       -0.512984   -0.216757    2.280235
      9         35           0       -0.408753    2.415851   -0.225634
     10         35           0        2.430567    0.197745    0.274184
     11         17           0        0.352822   -0.065534   -2.571738
 ---------------------------------------------------------------------
 Rotational constants (GHZ):      0.3296293      0.3276425      0.3055019
 Leave Link  202 at Wed May 11 14:30:42 2022, MaxMem=  2013265920 cpu:         0.1
 (Enter /scr/programas/g09/l301.exe)
 General basis read from cards:  (5D, 7F)
 Centers:       2      3
 S 6 1.00
     Exponent=  1.2238326969D+04 Coefficients=  5.6000000000D-04
     Exponent=  4.0794423230D+03 Coefficients=  7.7000000000D-04
     Exponent=  1.3598141077D+03 Coefficients=  4.0600000000D-03
     Exponent=  4.5327136922D+02 Coefficients=  1.3910000000D-02
     Exponent=  1.5109045641D+02 Coefficients=  5.2990000000D-02
     Exponent=  5.0363485469D+01 Coefficients=  1.6952000000D-01
 S 1 1.00
     Exponent=  1.6787828490D+01 Coefficients=  1.0000000000D+00
 S 1 1.00
     Exponent=  5.5959428299D+00 Coefficients=  1.0000000000D+00
 S 1 1.00
     Exponent=  1.8653142766D+00 Coefficients=  1.0000000000D+00
 S 1 1.00
     Exponent=  6.2177142554D-01 Coefficients=  1.0000000000D+00
 S 1 1.00
     Exponent=  2.0725714185D-01 Coefficients=  1.0000000000D+00
 P 4 1.00
     Exponent=  5.4142548249D+01 Coefficients=  3.9700000000D-03
     Exponent=  1.6659245615D+01 Coefficients=  1.9540000000D-02
     Exponent=  5.1259217277D+00 Coefficients=  9.9790000000D-02
     Exponent=  1.5772066854D+00 Coefficients=  3.2845000000D-01
 P 1 1.00
     Exponent=  4.8529436475D-01 Coefficients=  1.0000000000D+00
 P 1 1.00
     Exponent=  1.4932134300D-01 Coefficients=  1.0000000000D+00
 D 1 1.00
     Exponent=  4.7700000000D-01 Coefficients=  1.0000000000D+00
 D 1 1.00
     Exponent=  1.5026000000D-01 Coefficients=  1.0000000000D+00
 ****
 Centers:       4      5      6      7
 S 6 1.00
     Exponent=  1.6178118231D+04 Coefficients=  6.0000000000D-04
     Exponent=  5.3927060771D+03 Coefficients=  7.8000000000D-04
     Exponent=  1.7975686924D+03 Coefficients=  4.1000000000D-03
     Exponent=  5.9918956413D+02 Coefficients=  1.3880000000D-02
     Exponent=  1.9972985471D+02 Coefficients=  5.2770000000D-02
     Exponent=  6.6576618236D+01 Coefficients=  1.6924000000D-01
 S 1 1.00
     Exponent=  2.2192206079D+01 Coefficients=  1.0000000000D+00
 S 1 1.00
     Exponent=  7.3974020263D+00 Coefficients=  1.0000000000D+00
 S 1 1.00
     Exponent=  2.4658006754D+00 Coefficients=  1.0000000000D+00
 S 1 1.00
     Exponent=  8.2193355847D-01 Coefficients=  1.0000000000D+00
 S 1 1.00
     Exponent=  2.7397785282D-01 Coefficients=  1.0000000000D+00
 P 4 1.00
     Exponent=  7.3854398670D+01 Coefficients=  4.0200000000D-03
     Exponent=  2.2724430360D+01 Coefficients=  2.0130000000D-02
     Exponent=  6.9921324184D+00 Coefficients=  1.0470000000D-01
     Exponent=  2.1514253595D+00 Coefficients=  3.3605000000D-01
 P 1 1.00
     Exponent=  6.6197703370D-01 Coefficients=  1.0000000000D+00
 P 1 1.00
     Exponent=  2.0368524114D-01 Coefficients=  1.0000000000D+00
 D 1 1.00
     Exponent=  9.2880000000D-01 Coefficients=  1.0000000000D+00
 D 1 1.00
     Exponent=  2.2975000000D-01 Coefficients=  1.0000000000D+00
 ****
 Centers:      11
 S 7 1.00
     Exponent=  7.7142817164D+04 Coefficients=  1.0600000000D-03
     Exponent=  2.8051933514D+04 Coefficients=  6.4000000000D-04
     Exponent=  1.0200703096D+04 Coefficients=  3.9600000000D-03
     Exponent=  3.7093465804D+03 Coefficients=  9.8300000000D-03
     Exponent=  1.3488533020D+03 Coefficients=  3.2690000000D-02
     Exponent=  4.9049210981D+02 Coefficients=  9.9520000000D-02
     Exponent=  1.7836076720D+02 Coefficients=  2.6555000000D-01
 S 1 1.00
     Exponent=  6.4858460801D+01 Coefficients=  1.0000000000D+00
 S 1 1.00
     Exponent=  2.3584894837D+01 Coefficients=  1.0000000000D+00
 S 1 1.00
     Exponent=  8.5763253951D+00 Coefficients=  1.0000000000D+00
 S 1 1.00
     Exponent=  3.1186637801D+00 Coefficients=  1.0000000000D+00
 S 1 1.00
     Exponent=  1.1340595564D+00 Coefficients=  1.0000000000D+00
 S 1 1.00
     Exponent=  4.1238529323D-01 Coefficients=  1.0000000000D+00
 S 1 1.00
     Exponent=  1.4995828845D-01 Coefficients=  1.0000000000D+00
 S 1 1.00
     Exponent=  5.4530286708D-02 Coefficients=  1.0000000000D+00
 P 5 1.00
     Exponent=  6.9498536057D+02 Coefficients=  2.0000000000D-03
     Exponent=  2.3166178686D+02 Coefficients=  8.9500000000D-03
     Exponent=  7.7220595619D+01 Coefficients=  5.1130000000D-02
     Exponent=  2.5740198540D+01 Coefficients=  2.1011000000D-01
     Exponent=  8.5800661799D+00 Coefficients=  4.9738000000D-01
 P 1 1.00
     Exponent=  2.8600220600D+00 Coefficients=  1.0000000000D+00
 P 1 1.00
     Exponent=  9.5334068665D-01 Coefficients=  1.0000000000D+00
 P 1 1.00
     Exponent=  3.1778022888D-01 Coefficients=  1.0000000000D+00
 P 1 1.00
     Exponent=  1.0592674296D-01 Coefficients=  1.0000000000D+00
 P 1 1.00
     Exponent=  3.5308914320D-02 Coefficients=  1.0000000000D+00
 D 1 1.00
     Exponent=  5.5696000000D-01 Coefficients=  1.0000000000D+00
 D 1 1.00
     Exponent=  1.5619100000D-01 Coefficients=  1.0000000000D+00
 ****
 Centers:       8      9     10
 S 7 1.00
     Exponent=  3.4867099512D+05 Coefficients=  2.4100000000D-03
     Exponent=  1.3946839805D+05 Coefficients=  1.2000000000D-04
     Exponent=  5.5787359218D+04 Coefficients=  5.8500000000D-03
     Exponent=  2.2314943687D+04 Coefficients=  8.2100000000D-03
     Exponent=  8.9259774750D+03 Coefficients=  2.4090000000D-02
     Exponent=  3.5703909900D+03 Coefficients=  5.7250000000D-02
     Exponent=  1.4281563960D+03 Coefficients=  1.4467000000D-01
 S 1 1.00
     Exponent=  5.7126255840D+02 Coefficients=  1.0000000000D+00
 S 1 1.00
     Exponent=  2.2850502336D+02 Coefficients=  1.0000000000D+00
 S 1 1.00
     Exponent=  9.1402009344D+01 Coefficients=  1.0000000000D+00
 S 1 1.00
     Exponent=  3.6560803737D+01 Coefficients=  1.0000000000D+00
 S 1 1.00
     Exponent=  1.4624321495D+01 Coefficients=  1.0000000000D+00
 S 1 1.00
     Exponent=  5.8497285980D+00 Coefficients=  1.0000000000D+00
 S 1 1.00
     Exponent=  2.3398914392D+00 Coefficients=  1.0000000000D+00
 S 1 1.00
     Exponent=  9.3595657568D-01 Coefficients=  1.0000000000D+00
 S 1 1.00
     Exponent=  3.7438263027D-01 Coefficients=  1.0000000000D+00
 S 1 1.00
     Exponent=  1.4975305211D-01 Coefficients=  1.0000000000D+00
 S 1 1.00
     Exponent=  5.9901220843D-02 Coefficients=  1.0000000000D+00
 P 5 1.00
     Exponent=  4.2715043612D+03 Coefficients=  2.0900000000D-03
     Exponent=  1.5532743132D+03 Coefficients=  5.5700000000D-03
     Exponent=  5.6482702297D+02 Coefficients=  3.0250000000D-02
     Exponent=  2.0539164472D+02 Coefficients=  1.2196000000D-01
     Exponent=  7.4687870806D+01 Coefficients=  3.7861000000D-01
 P 1 1.00
     Exponent=  2.7159225748D+01 Coefficients=  1.0000000000D+00
 P 1 1.00
     Exponent=  9.8760820901D+00 Coefficients=  1.0000000000D+00
 P 1 1.00
     Exponent=  3.5913025782D+00 Coefficients=  1.0000000000D+00
 P 1 1.00
     Exponent=  1.3059282103D+00 Coefficients=  1.0000000000D+00
 P 1 1.00
     Exponent=  4.7488298555D-01 Coefficients=  1.0000000000D+00
 P 1 1.00
     Exponent=  1.7268472202D-01 Coefficients=  1.0000000000D+00
 P 1 1.00
     Exponent=  6.2794444370D-02 Coefficients=  1.0000000000D+00
 P 1 1.00
     Exponent=  2.2834343407D-02 Coefficients=  1.0000000000D+00
 D 4 1.00
     Exponent=  1.5776624282D+02 Coefficients=  7.9800000000D-03
     Exponent=  5.2588747607D+01 Coefficients=  4.9870000000D-02
     Exponent=  1.7529582536D+01 Coefficients=  2.2405000000D-01
     Exponent=  5.8431941786D+00 Coefficients=  4.4250000000D-01
 D 1 1.00
     Exponent=  1.9477313929D+00 Coefficients=  1.0000000000D+00
 D 1 1.00
     Exponent=  6.4924379762D-01 Coefficients=  1.0000000000D+00
 F 1 1.00
     Exponent=  1.6480000000D+00 Coefficients=  1.0000000000D+00
 F 1 1.00
     Exponent=  4.5490000000D-01 Coefficients=  1.0000000000D+00
 ****
 Centers:       1
 S 9 1.00
     Exponent=  2.1644816090D+06 Coefficients=  1.2320000000D-02
     Exponent=  1.0822408045D+06 Coefficients=  1.2970000000D-02
     Exponent=  5.4112040224D+05 Coefficients=  2.6370000000D-02
     Exponent=  2.7056020112D+05 Coefficients=  9.0400000000D-03
     Exponent=  1.3528010056D+05 Coefficients=  3.4980000000D-02
     Exponent=  6.7640050280D+04 Coefficients=  1.2220000000D-02
     Exponent=  3.3820025140D+04 Coefficients=  6.0520000000D-02
     Exponent=  1.6910012570D+04 Coefficients=  6.4930000000D-02
     Exponent=  8.4550062850D+03 Coefficients=  1.3819000000D-01
 S 1 1.00
     Exponent=  4.2275031425D+03 Coefficients=  1.0000000000D+00
 S 1 1.00
     Exponent=  2.1137515713D+03 Coefficients=  1.0000000000D+00
 S 1 1.00
     Exponent=  1.0568757856D+03 Coefficients=  1.0000000000D+00
 S 1 1.00
     Exponent=  5.2843789281D+02 Coefficients=  1.0000000000D+00
 S 1 1.00
     Exponent=  2.6421894641D+02 Coefficients=  1.0000000000D+00
 S 1 1.00
     Exponent=  1.3210947320D+02 Coefficients=  1.0000000000D+00
 S 1 1.00
     Exponent=  6.6054736602D+01 Coefficients=  1.0000000000D+00
 S 1 1.00
     Exponent=  3.3027368301D+01 Coefficients=  1.0000000000D+00
 S 1 1.00
     Exponent=  1.6513684150D+01 Coefficients=  1.0000000000D+00
 S 1 1.00
     Exponent=  8.2568420752D+00 Coefficients=  1.0000000000D+00
 S 1 1.00
     Exponent=  4.1284210376D+00 Coefficients=  1.0000000000D+00
 S 1 1.00
     Exponent=  2.0642105188D+00 Coefficients=  1.0000000000D+00
 S 1 1.00
     Exponent=  1.0321052594D+00 Coefficients=  1.0000000000D+00
 S 1 1.00
     Exponent=  5.1605262970D-01 Coefficients=  1.0000000000D+00
 S 1 1.00
     Exponent=  2.5802631485D-01 Coefficients=  1.0000000000D+00
 S 1 1.00
     Exponent=  1.2901315743D-01 Coefficients=  1.0000000000D+00
 S 1 1.00
     Exponent=  6.4506578713D-02 Coefficients=  1.0000000000D+00
 P 7 1.00
     Exponent=  3.2357915258D+04 Coefficients=  5.0200000000D-03
     Exponent=  1.4381295670D+04 Coefficients=  2.0200000000D-03
     Exponent=  6.3916869645D+03 Coefficients=  1.8070000000D-02
     Exponent=  2.8407497620D+03 Coefficients=  3.6620000000D-02
     Exponent=  1.2625554498D+03 Coefficients=  1.1172000000D-01
     Exponent=  5.6113575545D+02 Coefficients=  2.5586000000D-01
     Exponent=  2.4939366909D+02 Coefficients=  4.2608000000D-01
 P 1 1.00
     Exponent=  1.1084163071D+02 Coefficients=  1.0000000000D+00
 P 1 1.00
     Exponent=  4.9262946981D+01 Coefficients=  1.0000000000D+00
 P 1 1.00
     Exponent=  2.1894643103D+01 Coefficients=  1.0000000000D+00
 P 1 1.00
     Exponent=  9.7309524900D+00 Coefficients=  1.0000000000D+00
 P 1 1.00
     Exponent=  4.3248677733D+00 Coefficients=  1.0000000000D+00
 P 1 1.00
     Exponent=  1.9221634548D+00 Coefficients=  1.0000000000D+00
 P 1 1.00
     Exponent=  8.5429486881D-01 Coefficients=  1.0000000000D+00
 P 1 1.00
     Exponent=  3.7968660836D-01 Coefficients=  1.0000000000D+00
 P 1 1.00
     Exponent=  1.6874960372D-01 Coefficients=  1.0000000000D+00
 P 1 1.00
     Exponent=  7.4999823874D-02 Coefficients=  1.0000000000D+00
 P 1 1.00
     Exponent=  3.3333255055D-02 Coefficients=  1.0000000000D+00
 D 5 1.00
     Exponent=  1.9119003508D+03 Coefficients=  4.3300000000D-03
     Exponent=  7.6476014031D+02 Coefficients=  1.7780000000D-02
     Exponent=  3.0590405613D+02 Coefficients=  8.9710000000D-02
     Exponent=  1.2236162245D+02 Coefficients=  3.1123000000D-01
     Exponent=  4.8944648980D+01 Coefficients=  5.3206000000D-01
 D 1 1.00
     Exponent=  1.9577859592D+01 Coefficients=  1.0000000000D+00
 D 1 1.00
     Exponent=  7.8311438368D+00 Coefficients=  1.0000000000D+00
 D 1 1.00
     Exponent=  3.1324575347D+00 Coefficients=  1.0000000000D+00
 D 1 1.00
     Exponent=  1.2529830139D+00 Coefficients=  1.0000000000D+00
 D 1 1.00
     Exponent=  5.0119320556D-01 Coefficients=  1.0000000000D+00
 D 1 1.00
     Exponent=  2.0047728222D-01 Coefficients=  1.0000000000D+00
 D 1 1.00
     Exponent=  8.0190912889D-02 Coefficients=  1.0000000000D+00
 D 1 1.00
     Exponent=  3.2076365156D-02 Coefficients=  1.0000000000D+00
 F 4 1.00
     Exponent=  8.2289680979D+01 Coefficients=  6.1870000000D-02
     Exponent=  2.9923520356D+01 Coefficients=  2.4823000000D-01
     Exponent=  1.0881280130D+01 Coefficients=  4.9956000000D-01
     Exponent=  3.9568291380D+00 Coefficients=  4.0380000000D-01
 F 1 1.00
     Exponent=  1.4388469593D+00 Coefficients=  1.0000000000D+00
 F 1 1.00
     Exponent=  5.2321707610D-01 Coefficients=  1.0000000000D+00
 G 1 1.00
     Exponent=  2.6700000000D+00 Coefficients=  1.0000000000D+00
 G 1 1.00
     Exponent=  9.0960000000D-01 Coefficients=  1.0000000000D+00
 ****
 Ernie: Thresh=  0.10000D-02 Tol=  0.10000D-05 Strict=F.
 There are   600 symmetry adapted cartesian basis functions of A   symmetry.
 There are   529 symmetry adapted basis functions of A   symmetry.
   529 basis functions,   890 primitive gaussians,   600 cartesian basis functions
   124 alpha electrons      124 beta electrons
       nuclear repulsion energy      4455.1344623126 Hartrees.
 IExCor= 1009 DFT=T Ex=PBE Corr=PBE ExCW=0 ScaHFX=  0.000000
 ScaDFX=  1.000000  1.000000  1.000000  1.000000 ScalE2=  1.000000  1.000000
 IRadAn=      0 IRanWt=     -1 IRanGd=            0 ICorTp=0 IEmpDi=  4
 NAtoms=   11 NActive=   11 NUniq=   11 SFac= 1.00D+00 NAtFMM=   60 NAOKFM=F Big=F
 Integral buffers will be    131072 words long.
 Raffenetti 2 integral format.
 Two-electron integral symmetry is turned on.
 ------------------------------------------------------------------------------
 Polarizable Continuum Model (PCM)
 =================================
 Model                : PCM (using non-symmetric T matrix).
 Atomic radii         : UFF (Universal Force Field).
 Polarization charges : Total charges.
 Charge compensation  : None.
 Solution method      : On-the-fly selection.
 Cavity type          : Scaled VdW (van der Waals Surface) (Alpha=1.100).
 Cavity algorithm     : GePol (No added spheres)
                        Default sphere list used, NSphG=   11.
                        Lebedev-Laikov grids with approx.  5.0 points / Ang**2.
                        Smoothing algorithm: Karplus/York (Gamma=1.0000).
                        Polarization charges: spherical gaussians, with
                                              point-specific exponents (IZeta= 3).
                        Self-potential: point-specific (ISelfS= 7).
                        Self-field    : sphere-specific E.n sum rule (ISelfD= 2).
 Solvent              : Water, Eps=  78.355300 Eps(inf)=   1.777849
 ------------------------------------------------------------------------------
 Spheres list:
 ISph  on   Nord     Re0    Alpha      Xe            Ye            Ze
    1  Pt      1    1.3770  1.100     -0.076735     -0.139626     -0.211256
    2   N      2    1.8300  1.100     -2.128899     -0.430125     -0.618487
    3   N      3    1.8300  1.100      0.178080     -2.235874     -0.222972
    4   O      4    1.7500  1.100     -2.418962     -1.276746     -1.444304
    5   O      5    1.7500  1.100     -2.952783      0.241303     -0.029772
    6   O      6    1.7500  1.100      1.142126     -2.706988     -0.792182
    7   O      7    1.7500  1.100     -0.666128     -2.910383      0.338789
    8  Br      8    2.0945  1.100     -0.512984     -0.216757      2.280235
    9  Br      9    2.0945  1.100     -0.408753      2.415851     -0.225634
   10  Br     10    2.0945  1.100      2.430567      0.197745      0.274184
   11  Cl     11    1.9735  1.100      0.352822     -0.065534     -2.571738
 ------------------------------------------------------------------------------
 GePol: Number of generator spheres                  =      11
 GePol: Total number of spheres                      =      11
 GePol: Number of exposed spheres                    =      10 ( 90.91%)
 GePol: Number of points                             =    1747
 GePol: Average weight of points                     =       0.14
 GePol: Minimum weight of points                     =   0.14D-10
 GePol: Maximum weight of points                     =    0.21616
 GePol: Number of points with low weight             =      47
 GePol: Fraction of low-weight points (<1% of avg)   =       2.69%
 GePol: Cavity surface area                          =    251.694 Ang**2
 GePol: Cavity volume                                =    272.943 Ang**3
 Leave Link  301 at Wed May 11 14:30:42 2022, MaxMem=  2013265920 cpu:         1.5
 (Enter /scr/programas/g09/l302.exe)
 NPDir=0 NMtPBC=     1 NCelOv=     1 NCel=       1 NClECP=     1 NCelD=      1
         NCelK=      1 NCelE2=     1 NClLst=     1 CellRange=     0.0.
 One-electron integrals computed using PRISM.
 NBasis=   529 RedAO= T EigKep=  6.73D-05  NBF=   529
 NBsUse=   529 1.00D-06 EigRej= -1.00D+00 NBFU=   529
 Precomputing XC quadrature grid using
 IXCGrd= 4 IRadAn=           0 IRanWt=          -1 IRanGd=           0 AccXCQ= 0.00D+00.
 Defaulting to unpruned grid for atomic number  78.
 Generated NRdTot=       0 NPtTot=           0 NUsed=           0 NTot=          32
 NSgBfM=   542   543   543   543   543 MxSgAt=    11 MxSgA2=    11.
 Leave Link  302 at Wed May 11 14:30:44 2022, MaxMem=  2013265920 cpu:         9.6
 (Enter /scr/programas/g09/l308.exe)
 Leave Link  308 at Wed May 11 14:30:44 2022, MaxMem=  2013265920 cpu:         1.0
 (Enter /scr/programas/g09/l303.exe)
 DipDrv:  MaxL=1.
 Leave Link  303 at Wed May 11 14:30:44 2022, MaxMem=  2013265920 cpu:         0.6
 (Enter /scr/programas/g09/l401.exe)
 ExpMin= 2.28D-02 ExpMax= 2.16D+06 ExpMxC= 2.16D+06 IAcc=4 IRadAn=    199590 AccDes= 0.00D+00
 Harris functional with IExCor= 1009 and IRadAn=  199590 diagonalized for initial guess.
 HarFok:  IExCor= 1009 AccDes= 0.00D+00 IRadAn=    199590 IDoV= 1 UseB2=F ITyADJ=14
 ICtDFT=  3500011 ScaDFX=  1.000000  1.000000  1.000000  1.000000
 FoFCou: FMM=F IPFlag=           0 FMFlag=      100000 FMFlg1=           0
         NFxFlg=           0 DoJE=T BraDBF=F KetDBF=T FulRan=T
         wScrn=  0.000000 ICntrl=     500 IOpCl=  0 I1Cent=   200000004 NGrid=           0
         NMat0=    1 NMatS0=      1 NMatT0=    0 NMatD0=    1 NMtDS0=    0 NMtDT0=    0
 Petite list used in FoFCou.
 Harris En= -25698.7431101144    
 JPrj=0 DoOrth=F DoCkMO=F.
 Leave Link  401 at Wed May 11 14:30:53 2022, MaxMem=  2013265920 cpu:        68.2
 (Enter /scr/programas/g09/l502.exe)
 Closed shell SCF:
 Using DIIS extrapolation, IDIIS=  1040.
 Integral symmetry usage will be decided dynamically.
 IVT=     1131682 IEndB=     1131682 NGot=  2013265920 MDV=  2012535239
 LenX=  2012535239 LenY=  2012174639
 Requested convergence on RMS density matrix=1.00D-08 within 200 cycles.
 Requested convergence on MAX density matrix=1.00D-06.
 Requested convergence on             energy=1.00D-06.
 No special actions if energy rises.
 Fock matrices will be formed incrementally for  20 cycles.

 Cycle   1  Pass 1  IDiag  1:
 FoFJK:  IHMeth= 1 ICntrl=     500 DoSepK=F KAlg= 0 I1Cent=   0 FoldK=F
 IRaf= 750000000 NMat=   1 IRICut=       1 DoRegI=T DoRafI=F ISym2E= 0.
 FoFCou: FMM=F IPFlag=           0 FMFlag=      100000 FMFlg1=           0
         NFxFlg=           0 DoJE=T BraDBF=F KetDBF=F FulRan=T
         wScrn=  0.000000 ICntrl=     500 IOpCl=  0 I1Cent=           0 NGrid=           0
         NMat0=    1 NMatS0=      1 NMatT0=    0 NMatD0=    1 NMtDS0=    0 NMtDT0=    0
 Symmetry not used in FoFCou.
 Defaulting to unpruned grid for atomic number  78.
 Defaulting to unpruned grid for atomic number  78.
 Defaulting to unpruned grid for atomic number  78.
 Defaulting to unpruned grid for atomic number  78.
 Defaulting to unpruned grid for atomic number  78.
 Defaulting to unpruned grid for atomic number  78.
 Defaulting to unpruned grid for atomic number  78.
 Defaulting to unpruned grid for atomic number  78.
 Inv3:  Mode=1 IEnd=     9156027.
 Iteration    1 A*A^-1 deviation from unit magnitude is 7.11D-15 for    409.
 Iteration    1 A*A^-1 deviation from orthogonality  is 2.93D-15 for   1008    609.
 Iteration    1 A^-1*A deviation from unit magnitude is 7.55D-15 for    980.
 Iteration    1 A^-1*A deviation from orthogonality  is 2.93D-12 for    774    644.
 E= -25679.5369945552    
 DIIS: error= 3.68D-01 at cycle   1 NSaved=   1.
 NSaved= 1 IEnMin= 1 EnMin= -25679.5369945552     IErMin= 1 ErrMin= 3.68D-01
 ErrMax= 3.68D-01  0.00D+00 EMaxC= 1.00D-01 BMatC= 3.22D+02 BMatP= 3.22D+02
 IDIUse=3 WtCom= 0.00D+00 WtEn= 1.00D+00
 Coeff-Com:  0.100D+01
 Coeff-En:   0.100D+01
 Coeff:      0.100D+01
 Gap=     0.885 Goal=   None    Shift=    0.000
 GapD=    0.885 DampG=2.000 DampE=0.125 DampFc=0.2500 IDamp=-1.
 Damping current iteration by 2.50D-01
 RMSDP=1.53D-02 MaxDP=2.04D+00              OVMax= 8.29D-01

 Cycle   2  Pass 1  IDiag  1:
 RMSU=  3.80D-03    CP:  1.02D+00
 E= -25681.0682588689     Delta-E=       -1.531264313744 Rises=F Damp=T
 DIIS: error= 2.74D-01 at cycle   2 NSaved=   2.
 NSaved= 2 IEnMin= 2 EnMin= -25681.0682588689     IErMin= 2 ErrMin= 2.74D-01
 ErrMax= 2.74D-01  0.00D+00 EMaxC= 1.00D-01 BMatC= 1.54D+02 BMatP= 3.22D+02
 IDIUse=3 WtCom= 0.00D+00 WtEn= 1.00D+00
 Coeff-Com: -0.185D+01 0.285D+01
 Coeff-En:   0.226D+00 0.774D+00
 Coeff:      0.226D+00 0.774D+00
 Gap=    -0.260 Goal=   None    Shift=    0.000
 RMSDP=4.73D-03 MaxDP=3.88D-01 DE=-1.53D+00 OVMax= 9.74D-01

 Cycle   3  Pass 1  IDiag  1:
 RMSU=  4.55D-03    CP:  1.02D+00  6.63D-01
 E= -25681.0931928514     Delta-E=       -0.024933982430 Rises=F Damp=F
 DIIS: error= 9.92D-02 at cycle   3 NSaved=   3.
 NSaved= 3 IEnMin= 3 EnMin= -25681.0931928514     IErMin= 3 ErrMin= 9.92D-02
 ErrMax= 9.92D-02  0.00D+00 EMaxC= 1.00D-01 BMatC= 1.79D+01 BMatP= 1.54D+02
 IDIUse=3 WtCom= 8.36D-03 WtEn= 9.92D-01
 EnCoef did   100 forward-backward iterations
 Coeff-Com:  0.612D+00-0.644D+00 0.103D+01
 Coeff-En:   0.429D+00 0.115D-01 0.560D+00
 Coeff:      0.430D+00 0.604D-02 0.564D+00
 Gap=    -0.061 Goal=   None    Shift=    0.000
 RMSDP=6.44D-03 MaxDP=3.11D-01 DE=-2.49D-02 OVMax= 5.91D-01

 Cycle   4  Pass 1  IDiag  1:
 RMSU=  5.47D-03    CP:  1.02D+00  4.01D-01  2.87D-01
 E= -25682.8626276037     Delta-E=       -1.769434752307 Rises=F Damp=F
 DIIS: error= 4.95D-02 at cycle   4 NSaved=   4.
 NSaved= 4 IEnMin= 4 EnMin= -25682.8626276037     IErMin= 4 ErrMin= 4.95D-02
 ErrMax= 4.95D-02  0.00D+00 EMaxC= 1.00D-01 BMatC= 2.90D+00 BMatP= 1.79D+01
 IDIUse=3 WtCom= 5.05D-01 WtEn= 4.95D-01
 EnCoef did     5 forward-backward iterations
 Coeff-Com:  0.462D+00-0.557D+00 0.379D+00 0.717D+00
 Coeff-En:   0.216D+00 0.000D+00 0.347D+00 0.437D+00
 Coeff:      0.340D+00-0.281D+00 0.363D+00 0.578D+00
 Gap=     0.115 Goal=   None    Shift=    0.000
 RMSDP=6.23D-03 MaxDP=3.11D-01 DE=-1.77D+00 OVMax= 6.22D-01

 Cycle   5  Pass 1  IDiag  1:
 RMSU=  2.47D-03    CP:  1.00D+00  2.73D-01  3.97D-01 -3.71D-02
 E= -25682.8270034830     Delta-E=        0.035624120675 Rises=F Damp=F
 DIIS: error= 3.60D-02 at cycle   5 NSaved=   5.
 NSaved= 5 IEnMin= 4 EnMin= -25682.8626276037     IErMin= 5 ErrMin= 3.60D-02
 ErrMax= 3.60D-02  0.00D+00 EMaxC= 1.00D-01 BMatC= 3.14D+00 BMatP= 2.90D+00
 IDIUse=3 WtCom= 6.40D-01 WtEn= 3.60D-01
 EnCoef did     2 forward-backward iterations
 Coeff-Com: -0.286D-01 0.755D-01 0.101D+00 0.419D+00 0.433D+00
 Coeff-En:   0.000D+00 0.000D+00 0.141D+00 0.433D+00 0.426D+00
 Coeff:     -0.183D-01 0.483D-01 0.116D+00 0.424D+00 0.430D+00
 Gap=     0.024 Goal=   None    Shift=    0.000
 RMSDP=2.79D-03 MaxDP=1.15D-01 DE= 3.56D-02 OVMax= 5.13D-01

 Cycle   6  Pass 1  IDiag  1:
 RMSU=  1.93D-03    CP:  1.01D+00  3.96D-01  4.68D-01  9.34D-02  2.80D-01
 E= -25684.5547411790     Delta-E=       -1.727737696048 Rises=F Damp=F
 DIIS: error= 2.79D-02 at cycle   6 NSaved=   6.
 NSaved= 6 IEnMin= 6 EnMin= -25684.5547411790     IErMin= 6 ErrMin= 2.79D-02
 ErrMax= 2.79D-02  0.00D+00 EMaxC= 1.00D-01 BMatC= 1.02D+00 BMatP= 2.90D+00
 IDIUse=3 WtCom= 7.21D-01 WtEn= 2.79D-01
 EnCoef did     6 forward-backward iterations
 Coeff-Com: -0.948D-01 0.140D+00-0.289D-01 0.245D+00 0.319D+00 0.420D+00
 Coeff-En:   0.000D+00 0.000D+00 0.000D+00 0.176D+00 0.277D+00 0.548D+00
 Coeff:     -0.683D-01 0.101D+00-0.208D-01 0.226D+00 0.307D+00 0.455D+00
 Gap=     0.029 Goal=   None    Shift=    0.000
 RMSDP=1.69D-03 MaxDP=1.25D-01 DE=-1.73D+00 OVMax= 2.81D-01

 Cycle   7  Pass 1  IDiag  1:
 RMSU=  1.19D-03    CP:  1.01D+00  3.15D-01  4.51D-01  5.83D-02  4.79D-01
                    CP:  4.67D-01
 E= -25685.0601224253     Delta-E=       -0.505381246214 Rises=F Damp=F
 DIIS: error= 1.55D-02 at cycle   7 NSaved=   7.
 NSaved= 7 IEnMin= 7 EnMin= -25685.0601224253     IErMin= 7 ErrMin= 1.55D-02
 ErrMax= 1.55D-02  0.00D+00 EMaxC= 1.00D-01 BMatC= 2.65D-01 BMatP= 1.02D+00
 IDIUse=3 WtCom= 8.45D-01 WtEn= 1.55D-01
 Coeff-Com:  0.268D-01-0.340D-01-0.131D-02 0.119D+00 0.465D-01 0.317D+00
 Coeff-Com:  0.526D+00
 Coeff-En:   0.000D+00 0.000D+00 0.000D+00 0.000D+00 0.000D+00 0.286D+00
 Coeff-En:   0.714D+00
 Coeff:      0.226D-01-0.288D-01-0.110D-02 0.101D+00 0.393D-01 0.312D+00
 Coeff:      0.555D+00
 Gap=     0.123 Goal=   None    Shift=    0.000
 RMSDP=1.20D-03 MaxDP=1.04D-01 DE=-5.05D-01 OVMax= 2.35D-01

 Cycle   8  Pass 1  IDiag  1:
 RMSU=  7.33D-04    CP:  1.01D+00  2.94D-01  3.66D-01  1.17D-01  3.35D-01
                    CP:  6.19D-01  4.52D-01
 E= -25685.1938492896     Delta-E=       -0.133726864362 Rises=F Damp=F
 DIIS: error= 9.50D-03 at cycle   8 NSaved=   8.
 NSaved= 8 IEnMin= 8 EnMin= -25685.1938492896     IErMin= 8 ErrMin= 9.50D-03
 ErrMax= 9.50D-03  0.00D+00 EMaxC= 1.00D-01 BMatC= 1.33D-01 BMatP= 2.65D-01
 IDIUse=3 WtCom= 9.05D-01 WtEn= 9.50D-02
 EnCoef did     5 forward-backward iterations
 Coeff-Com: -0.323D-01 0.435D-01-0.120D-01 0.193D-01-0.372D-04 0.188D+00
 Coeff-Com:  0.370D+00 0.423D+00
 Coeff-En:   0.000D+00 0.000D+00 0.000D+00 0.000D+00 0.000D+00 0.844D-01
 Coeff-En:   0.314D+00 0.601D+00
 Coeff:     -0.293D-01 0.394D-01-0.109D-01 0.175D-01-0.337D-04 0.178D+00
 Coeff:      0.365D+00 0.440D+00
 Gap=     0.070 Goal=   None    Shift=    0.000
 RMSDP=5.97D-04 MaxDP=4.66D-02 DE=-1.34D-01 OVMax= 1.30D-01

 Cycle   9  Pass 1  IDiag  1:
 RMSU=  2.54D-04    CP:  1.01D+00  3.44D-01  4.19D-01  1.09D-01  3.71D-01
                    CP:  6.98D-01  5.73D-01  4.84D-01
 E= -25685.2807475207     Delta-E=       -0.086898231049 Rises=F Damp=F
 DIIS: error= 3.11D-03 at cycle   9 NSaved=   9.
 NSaved= 9 IEnMin= 9 EnMin= -25685.2807475207     IErMin= 9 ErrMin= 3.11D-03
 ErrMax= 3.11D-03  0.00D+00 EMaxC= 1.00D-01 BMatC= 1.39D-02 BMatP= 1.33D-01
 IDIUse=3 WtCom= 9.69D-01 WtEn= 3.11D-02
 Coeff-Com: -0.560D-02 0.726D-02-0.293D-02 0.345D-02-0.455D-02 0.626D-01
 Coeff-Com:  0.160D+00 0.277D+00 0.503D+00
 Coeff-En:   0.000D+00 0.000D+00 0.000D+00 0.000D+00 0.000D+00 0.000D+00
 Coeff-En:   0.000D+00 0.142D+00 0.858D+00
 Coeff:     -0.542D-02 0.703D-02-0.284D-02 0.334D-02-0.441D-02 0.607D-01
 Coeff:      0.155D+00 0.272D+00 0.514D+00
 Gap=     0.068 Goal=   None    Shift=    0.000
 RMSDP=2.40D-04 MaxDP=1.62D-02 DE=-8.69D-02 OVMax= 3.93D-02

 Cycle  10  Pass 1  IDiag  1:
 RMSU=  1.40D-04    CP:  1.01D+00  3.26D-01  4.12D-01  1.01D-01  3.76D-01
                    CP:  6.77D-01  5.88D-01  5.04D-01  3.43D-01
 E= -25685.2864139175     Delta-E=       -0.005666396821 Rises=F Damp=F
 DIIS: error= 2.17D-03 at cycle  10 NSaved=  10.
 NSaved=10 IEnMin=10 EnMin= -25685.2864139175     IErMin=10 ErrMin= 2.17D-03
 ErrMax= 2.17D-03  0.00D+00 EMaxC= 1.00D-01 BMatC= 5.02D-03 BMatP= 1.39D-02
 IDIUse=3 WtCom= 9.78D-01 WtEn= 2.17D-02
 Coeff-Com:  0.276D-03-0.524D-03-0.172D-03-0.393D-03-0.230D-02 0.145D-01
 Coeff-Com:  0.560D-01 0.148D+00 0.454D+00 0.331D+00
 Coeff-En:   0.000D+00 0.000D+00 0.000D+00 0.000D+00 0.000D+00 0.000D+00
 Coeff-En:   0.000D+00 0.000D+00 0.339D+00 0.661D+00
 Coeff:      0.270D-03-0.512D-03-0.168D-03-0.384D-03-0.225D-02 0.142D-01
 Coeff:      0.547D-01 0.144D+00 0.452D+00 0.338D+00
 Gap=     0.068 Goal=   None    Shift=    0.000
 RMSDP=1.20D-04 MaxDP=5.94D-03 DE=-5.67D-03 OVMax= 2.35D-02

 Cycle  11  Pass 1  IDiag  1:
 RMSU=  6.41D-05    CP:  1.01D+00  3.26D-01  4.10D-01  1.04D-01  3.71D-01
                    CP:  6.77D-01  5.94D-01  5.06D-01  5.60D-01  4.17D-01
 E= -25685.2898878403     Delta-E=       -0.003473922821 Rises=F Damp=F
 DIIS: error= 9.94D-04 at cycle  11 NSaved=  11.
 NSaved=11 IEnMin=11 EnMin= -25685.2898878403     IErMin=11 ErrMin= 9.94D-04
 ErrMax= 9.94D-04  0.00D+00 EMaxC= 1.00D-01 BMatC= 8.07D-04 BMatP= 5.02D-03
 IDIUse=3 WtCom= 9.90D-01 WtEn= 9.94D-03
 EnCoef did     3 forward-backward iterations
 Coeff-Com: -0.933D-03 0.119D-02-0.298D-03-0.951D-03-0.136D-02 0.507D-02
 Coeff-Com:  0.227D-01 0.811D-01 0.279D+00 0.273D+00 0.341D+00
 Coeff-En:   0.000D+00 0.000D+00 0.000D+00 0.000D+00 0.000D+00 0.000D+00
 Coeff-En:   0.000D+00 0.000D+00 0.741D-02 0.158D+00 0.834D+00
 Coeff:     -0.923D-03 0.118D-02-0.295D-03-0.941D-03-0.134D-02 0.502D-02
 Coeff:      0.225D-01 0.803D-01 0.277D+00 0.272D+00 0.346D+00
 Gap=     0.068 Goal=   None    Shift=    0.000
 RMSDP=4.64D-05 MaxDP=2.15D-03 DE=-3.47D-03 OVMax= 8.71D-03

 Cycle  12  Pass 1  IDiag  1:
 RMSU=  2.05D-05    CP:  1.01D+00  3.29D-01  4.11D-01  1.04D-01  3.72D-01
                    CP:  6.77D-01  5.92D-01  5.14D-01  5.98D-01  4.39D-01
                    CP:  4.05D-01
 E= -25685.2904530667     Delta-E=       -0.000565226364 Rises=F Damp=F
 DIIS: error= 2.75D-04 at cycle  12 NSaved=  12.
 NSaved=12 IEnMin=12 EnMin= -25685.2904530667     IErMin=12 ErrMin= 2.75D-04
 ErrMax= 2.75D-04  0.00D+00 EMaxC= 1.00D-01 BMatC= 9.34D-05 BMatP= 8.07D-04
 IDIUse=3 WtCom= 9.97D-01 WtEn= 2.75D-03
 Coeff-Com: -0.882D-03 0.117D-02-0.381D-03-0.357D-03-0.270D-03 0.827D-03
 Coeff-Com:  0.504D-02 0.359D-01 0.132D+00 0.145D+00 0.257D+00 0.425D+00
 Coeff-En:   0.000D+00 0.000D+00 0.000D+00 0.000D+00 0.000D+00 0.000D+00
 Coeff-En:   0.000D+00 0.000D+00 0.000D+00 0.000D+00 0.114D+00 0.886D+00
 Coeff:     -0.880D-03 0.117D-02-0.379D-03-0.356D-03-0.270D-03 0.825D-03
 Coeff:      0.502D-02 0.358D-01 0.132D+00 0.145D+00 0.257D+00 0.426D+00
 Gap=     0.068 Goal=   None    Shift=    0.000
 RMSDP=2.41D-05 MaxDP=1.24D-03 DE=-5.65D-04 OVMax= 6.18D-03

 Cycle  13  Pass 1  IDiag  1:
 RMSU=  1.13D-05    CP:  1.01D+00  3.29D-01  4.11D-01  1.04D-01  3.73D-01
                    CP:  6.78D-01  5.85D-01  5.22D-01  5.74D-01  4.70D-01
                    CP:  4.05D-01  1.64D-01
 E= -25685.2905002503     Delta-E=       -0.000047183603 Rises=F Damp=F
 DIIS: error= 1.68D-04 at cycle  13 NSaved=  13.
 NSaved=13 IEnMin=13 EnMin= -25685.2905002503     IErMin=13 ErrMin= 1.68D-04
 ErrMax= 1.68D-04  0.00D+00 EMaxC= 1.00D-01 BMatC= 3.55D-05 BMatP= 9.34D-05
 IDIUse=3 WtCom= 9.98D-01 WtEn= 1.68D-03
 Coeff-Com: -0.296D-03 0.393D-03-0.227D-03 0.203D-04-0.117D-04-0.517D-03
 Coeff-Com: -0.672D-04 0.171D-01 0.693D-01 0.804D-01 0.155D+00 0.356D+00
 Coeff-Com:  0.323D+00
 Coeff-En:   0.000D+00 0.000D+00 0.000D+00 0.000D+00 0.000D+00 0.000D+00
 Coeff-En:   0.000D+00 0.000D+00 0.000D+00 0.000D+00 0.000D+00 0.320D+00
 Coeff-En:   0.680D+00
 Coeff:     -0.295D-03 0.392D-03-0.226D-03 0.202D-04-0.116D-04-0.516D-03
 Coeff:     -0.671D-04 0.170D-01 0.692D-01 0.802D-01 0.155D+00 0.356D+00
 Coeff:      0.324D+00
 Gap=     0.068 Goal=   None    Shift=    0.000
 RMSDP=1.10D-05 MaxDP=7.43D-04 DE=-4.72D-05 OVMax= 2.58D-03

 Cycle  14  Pass 1  IDiag  1:
 RMSU=  3.16D-06    CP:  1.01D+00  3.29D-01  4.11D-01  1.04D-01  3.72D-01
                    CP:  6.78D-01  5.87D-01  5.21D-01  5.84D-01  4.53D-01
                    CP:  4.51D-01  4.44D-01  4.20D-01
 E= -25685.2905297212     Delta-E=       -0.000029470953 Rises=F Damp=F
 DIIS: error= 4.23D-05 at cycle  14 NSaved=  14.
 NSaved=14 IEnMin=14 EnMin= -25685.2905297212     IErMin=14 ErrMin= 4.23D-05
 ErrMax= 4.23D-05  0.00D+00 EMaxC= 1.00D-01 BMatC= 1.89D-06 BMatP= 3.55D-05
 IDIUse=1 WtCom= 1.00D+00 WtEn= 0.00D+00
 Coeff-Com: -0.849D-04 0.112D-03-0.115D-03 0.839D-04-0.761D-04-0.338D-03
 Coeff-Com: -0.341D-03 0.885D-02 0.364D-01 0.442D-01 0.837D-01 0.208D+00
 Coeff-Com:  0.223D+00 0.396D+00
 Coeff:     -0.849D-04 0.112D-03-0.115D-03 0.839D-04-0.761D-04-0.338D-03
 Coeff:     -0.341D-03 0.885D-02 0.364D-01 0.442D-01 0.837D-01 0.208D+00
 Coeff:      0.223D+00 0.396D+00
 Gap=     0.068 Goal=   None    Shift=    0.000
 RMSDP=3.07D-06 MaxDP=1.26D-04 DE=-2.95D-05 OVMax= 6.47D-04

 Cycle  15  Pass 1  IDiag  1:
 RMSU=  2.00D-06    CP:  1.01D+00  3.29D-01  4.11D-01  1.04D-01  3.72D-01
                    CP:  6.78D-01  5.87D-01  5.21D-01  5.86D-01  4.52D-01
                    CP:  4.48D-01  4.75D-01  4.17D-01  3.65D-01
 E= -25685.2905302385     Delta-E=       -0.000000517270 Rises=F Damp=F
 DIIS: error= 3.56D-05 at cycle  15 NSaved=  15.
 NSaved=15 IEnMin=15 EnMin= -25685.2905302385     IErMin=15 ErrMin= 3.56D-05
 ErrMax= 3.56D-05  0.00D+00 EMaxC= 1.00D-01 BMatC= 1.24D-06 BMatP= 1.89D-06
 IDIUse=1 WtCom= 1.00D+00 WtEn= 0.00D+00
 Coeff-Com: -0.509D-04 0.695D-04-0.430D-04 0.639D-04-0.548D-05-0.100D-03
 Coeff-Com: -0.443D-03 0.126D-02 0.539D-02 0.946D-02 0.153D-01 0.536D-01
 Coeff-Com:  0.822D-01 0.413D+00 0.421D+00
 Coeff:     -0.509D-04 0.695D-04-0.430D-04 0.639D-04-0.548D-05-0.100D-03
 Coeff:     -0.443D-03 0.126D-02 0.539D-02 0.946D-02 0.153D-01 0.536D-01
 Coeff:      0.822D-01 0.413D+00 0.421D+00
 Gap=     0.068 Goal=   None    Shift=    0.000
 RMSDP=1.76D-06 MaxDP=6.88D-05 DE=-5.17D-07 OVMax= 4.28D-04

 Cycle  16  Pass 1  IDiag  1:
 RMSU=  5.12D-07    CP:  1.01D+00  3.29D-01  4.11D-01  1.04D-01  3.72D-01
                    CP:  6.78D-01  5.87D-01  5.21D-01  5.84D-01  4.55D-01
                    CP:  4.45D-01  4.46D-01  4.38D-01  6.33D-01  5.45D-01
 E= -25685.2905312212     Delta-E=       -0.000000982720 Rises=F Damp=F
 DIIS: error= 3.71D-06 at cycle  16 NSaved=  16.
 NSaved=16 IEnMin=16 EnMin= -25685.2905312212     IErMin=16 ErrMin= 3.71D-06
 ErrMax= 3.71D-06  0.00D+00 EMaxC= 1.00D-01 BMatC= 2.93D-08 BMatP= 1.24D-06
 IDIUse=1 WtCom= 1.00D+00 WtEn= 0.00D+00
 Coeff-Com: -0.124D-04 0.171D-04-0.113D-04 0.249D-04-0.425D-05-0.372D-04
 Coeff-Com: -0.141D-03 0.286D-03 0.738D-03 0.233D-02 0.308D-02 0.133D-01
 Coeff-Com:  0.261D-01 0.189D+00 0.209D+00 0.557D+00
 Coeff:     -0.124D-04 0.171D-04-0.113D-04 0.249D-04-0.425D-05-0.372D-04
 Coeff:     -0.141D-03 0.286D-03 0.738D-03 0.233D-02 0.308D-02 0.133D-01
 Coeff:      0.261D-01 0.189D+00 0.209D+00 0.557D+00
 Gap=     0.068 Goal=   None    Shift=    0.000
 RMSDP=4.53D-07 MaxDP=4.38D-05 DE=-9.83D-07 OVMax= 9.00D-05

 Cycle  17  Pass 1  IDiag  1:
 RMSU=  2.59D-07    CP:  1.01D+00  3.29D-01  4.11D-01  1.04D-01  3.72D-01
                    CP:  6.78D-01  5.87D-01  5.21D-01  5.85D-01  4.55D-01
                    CP:  4.45D-01  4.51D-01  4.31D-01  6.34D-01  5.71D-01
                    CP:  3.68D-01
 E= -25685.2905312362     Delta-E=       -0.000000014938 Rises=F Damp=F
 DIIS: error= 2.52D-06 at cycle  17 NSaved=  17.
 NSaved=17 IEnMin=17 EnMin= -25685.2905312362     IErMin=17 ErrMin= 2.52D-06
 ErrMax= 2.52D-06  0.00D+00 EMaxC= 1.00D-01 BMatC= 1.03D-08 BMatP= 2.93D-08
 IDIUse=1 WtCom= 1.00D+00 WtEn= 0.00D+00
 Coeff-Com:  0.839D-06-0.946D-06-0.527D-06 0.831D-05-0.101D-05-0.162D-04
 Coeff-Com: -0.313D-04 0.472D-04-0.280D-03 0.275D-03 0.386D-04 0.117D-02
 Coeff-Com:  0.642D-02 0.794D-01 0.851D-01 0.413D+00 0.415D+00
 Coeff:      0.839D-06-0.946D-06-0.527D-06 0.831D-05-0.101D-05-0.162D-04
 Coeff:     -0.313D-04 0.472D-04-0.280D-03 0.275D-03 0.386D-04 0.117D-02
 Coeff:      0.642D-02 0.794D-01 0.851D-01 0.413D+00 0.415D+00
 Gap=     0.068 Goal=   None    Shift=    0.000
 RMSDP=2.08D-07 MaxDP=1.73D-05 DE=-1.49D-08 OVMax= 4.37D-05

 Cycle  18  Pass 1  IDiag  1:
 RMSU=  6.29D-08    CP:  1.01D+00  3.29D-01  4.11D-01  1.04D-01  3.72D-01
                    CP:  6.78D-01  5.87D-01  5.21D-01  5.84D-01  4.55D-01
                    CP:  4.46D-01  4.50D-01  4.35D-01  6.35D-01  5.58D-01
                    CP:  6.25D-01  5.69D-01
 E= -25685.2905312462     Delta-E=       -0.000000010004 Rises=F Damp=F
 DIIS: error= 6.89D-07 at cycle  18 NSaved=  18.
 NSaved=18 IEnMin=18 EnMin= -25685.2905312462     IErMin=18 ErrMin= 6.89D-07
 ErrMax= 6.89D-07  0.00D+00 EMaxC= 1.00D-01 BMatC= 4.79D-10 BMatP= 1.03D-08
 IDIUse=1 WtCom= 1.00D+00 WtEn= 0.00D+00
 Coeff-Com:  0.152D-06-0.200D-06 0.319D-06 0.224D-06 0.860D-06-0.603D-05
 Coeff-Com: -0.291D-05 0.100D-04-0.213D-03-0.606D-04-0.102D-03-0.483D-03
 Coeff-Com:  0.104D-02 0.247D-01 0.219D-01 0.181D+00 0.227D+00 0.545D+00
 Coeff:      0.152D-06-0.200D-06 0.319D-06 0.224D-06 0.860D-06-0.603D-05
 Coeff:     -0.291D-05 0.100D-04-0.213D-03-0.606D-04-0.102D-03-0.483D-03
 Coeff:      0.104D-02 0.247D-01 0.219D-01 0.181D+00 0.227D+00 0.545D+00
 Gap=     0.068 Goal=   None    Shift=    0.000
 RMSDP=3.31D-08 MaxDP=2.04D-06 DE=-1.00D-08 OVMax= 3.77D-06

 Cycle  19  Pass 1  IDiag  1:
 RMSU=  1.70D-08    CP:  1.01D+00  3.29D-01  4.11D-01  1.04D-01  3.72D-01
                    CP:  6.78D-01  5.87D-01  5.21D-01  5.84D-01  4.55D-01
                    CP:  4.46D-01  4.50D-01  4.35D-01  6.38D-01  5.56D-01
                    CP:  6.20D-01  5.77D-01  6.35D-01
 E= -25685.2905312470     Delta-E=       -0.000000000793 Rises=F Damp=F
 DIIS: error= 1.97D-07 at cycle  19 NSaved=  19.
 NSaved=19 IEnMin=19 EnMin= -25685.2905312470     IErMin=19 ErrMin= 1.97D-07
 ErrMax= 1.97D-07  0.00D+00 EMaxC= 1.00D-01 BMatC= 5.45D-11 BMatP= 4.79D-10
 IDIUse=1 WtCom= 1.00D+00 WtEn= 0.00D+00
 Coeff-Com: -0.122D-06 0.139D-06 0.925D-07-0.721D-06 0.970D-06-0.312D-05
 Coeff-Com:  0.231D-06 0.670D-05-0.992D-04-0.303D-04-0.300D-05-0.230D-03
 Coeff-Com:  0.354D-03 0.107D-01 0.848D-02 0.869D-01 0.111D+00 0.341D+00
 Coeff-Com:  0.442D+00
 Coeff:     -0.122D-06 0.139D-06 0.925D-07-0.721D-06 0.970D-06-0.312D-05
 Coeff:      0.231D-06 0.670D-05-0.992D-04-0.303D-04-0.300D-05-0.230D-03
 Coeff:      0.354D-03 0.107D-01 0.848D-02 0.869D-01 0.111D+00 0.341D+00
 Coeff:      0.442D+00
 Gap=     0.068 Goal=   None    Shift=    0.000
 RMSDP=1.26D-08 MaxDP=9.11D-07 DE=-7.93D-10 OVMax= 1.80D-06

 Cycle  20  Pass 1  IDiag  1:
 RMSU=  6.89D-09    CP:  1.01D+00  3.29D-01  4.11D-01  1.04D-01  3.72D-01
                    CP:  6.78D-01  5.87D-01  5.21D-01  5.84D-01  4.55D-01
                    CP:  4.46D-01  4.50D-01  4.35D-01  6.39D-01  5.56D-01
                    CP:  6.14D-01  5.82D-01  6.39D-01  6.88D-01
 E= -25685.2905312460     Delta-E=        0.000000000917 Rises=F Damp=F
 DIIS: error= 6.31D-08 at cycle  20 NSaved=  20.
 NSaved=20 IEnMin=19 EnMin= -25685.2905312470     IErMin=20 ErrMin= 6.31D-08
 ErrMax= 6.31D-08  0.00D+00 EMaxC= 1.00D-01 BMatC= 7.26D-12 BMatP= 5.45D-11
 IDIUse=1 WtCom= 1.00D+00 WtEn= 0.00D+00
 Coeff-Com: -0.725D-07 0.813D-07 0.239D-07-0.481D-06 0.503D-06-0.148D-05
 Coeff-Com:  0.281D-06 0.370D-05-0.345D-04-0.148D-05 0.247D-04-0.121D-04
 Coeff-Com:  0.202D-03 0.447D-02 0.373D-02 0.324D-01 0.385D-01 0.141D+00
 Coeff-Com:  0.278D+00 0.502D+00
 Coeff:     -0.725D-07 0.813D-07 0.239D-07-0.481D-06 0.503D-06-0.148D-05
 Coeff:      0.281D-06 0.370D-05-0.345D-04-0.148D-05 0.247D-04-0.121D-04
 Coeff:      0.202D-03 0.447D-02 0.373D-02 0.324D-01 0.385D-01 0.141D+00
 Coeff:      0.278D+00 0.502D+00
 Gap=     0.068 Goal=   None    Shift=    0.000
 RMSDP=6.90D-09 MaxDP=4.77D-07 DE= 9.17D-10 OVMax= 1.23D-06

 Error on total polarization charges =  0.03275
 SCF Done:  E(RPBE-PBE) =  -25685.2905312     A.U. after   20 cycles
            NFock= 20  Conv=0.69D-08     -V/T= 2.0132
 KE= 2.535171676515D+04 PE=-6.995173231340D+04 EE= 1.445959055468D+04
 Leave Link  502 at Wed May 11 14:37:02 2022, MaxMem=  2013265920 cpu:      2931.1
 (Enter /scr/programas/g09/l801.exe)
 Range of M.O.s used for correlation:     1   529
 NBasis=   529 NAE=   124 NBE=   124 NFC=     0 NFV=     0
 NROrb=    529 NOA=   124 NOB=   124 NVA=   405 NVB=   405

 **** Warning!!: The largest alpha MO coefficient is  0.26463937D+02


 **** Warning!!: The smallest alpha delta epsilon is  0.67970292D-01

 Leave Link  801 at Wed May 11 14:37:02 2022, MaxMem=  2013265920 cpu:         0.2
 (Enter /scr/programas/g09/l1002.exe)
 Minotr:  Closed shell wavefunction.
 NEqPCM:  Using equilibrium solvation (IEInf=0, Eps=  78.3553, EpsInf=   1.7778)
          Direct CPHF calculation.
          Differentiating once with respect to magnetic field using GIAOs.
          Electric field/nuclear overlap derivatives assumed to be zero.
          Requested convergence is 1.0D-08 RMS, and 1.0D-07 maximum.
          Secondary convergence is 1.0D-12 RMS, and 1.0D-12 maximum.
          NewPWx=T KeepS1=F KeepF1=F KeepIn=T MapXYZ=F SortEE=F KeepMc=T.
          MDV=    2013265299 using IRadAn=       2.
 Defaulting to unpruned grid for atomic number  78.
 Generate precomputed XC quadrature information.
          Solving linear equations simultaneously, MaxMat=       0.
 FoFJK:  IHMeth= 1 ICntrl=    6127 DoSepK=F KAlg= 0 I1Cent=   0 FoldK=F
 IRaf=         1 NMat=   1 IRICut=       1 DoRegI=T DoRafI=F ISym2E= 0.
 Defaulting to unpruned grid for atomic number  78.
 Defaulting to unpruned grid for atomic number  78.
 Defaulting to unpruned grid for atomic number  78.
 Defaulting to unpruned grid for atomic number  78.
 Defaulting to unpruned grid for atomic number  78.
 Defaulting to unpruned grid for atomic number  78.
 Defaulting to unpruned grid for atomic number  78.
 Defaulting to unpruned grid for atomic number  78.
          There are     3 degrees of freedom in the 1st order CPHF.  IDoFFX=0 NUNeed=     3.
      3 vectors produced by pass  0 Test12= 1.67D-12 3.33D-08 XBig12= 3.96D+01 2.24D+00.
 AX will form     3 AO Fock derivatives at one time.
 InvSVY:  IOpt=1 It=  1 EMax= 0.00D+00
 Solved reduced A of dimension     3 with     3 vectors.
 Calculating GIAO nuclear magnetic shielding tensors.
 SCF GIAO Magnetic shielding tensor (ppm):
      1  Pt   Isotropic = -1023.7180   Anisotropy =   639.5475
   XX=  -739.0501   YX=    32.7420   ZX=   281.6374
   XY=    44.1694   YY=  -621.2153   ZY=     6.5223
   XZ=   469.6759   YZ=  -130.9462   ZZ= -1710.8885
   Eigenvalues: -1843.3249  -630.4762  -597.3530
      2  N    Isotropic =  -187.7631   Anisotropy =   268.5720
   XX=  -235.3067   YX=    21.4039   ZX=     6.3256
   XY=    25.5028   YY=  -172.2028   ZY=  -156.8371
   XZ=     8.5107   YZ=  -152.2512   ZZ=  -155.7799
   Eigenvalues:  -324.2771  -230.2971    -8.7151
      3  N    Isotropic =  -187.3660   Anisotropy =   267.9383
   XX=  -234.7837   YX=    -0.8294   ZX=   142.2341
   XY=    -6.3148   YY=  -231.0784   ZY=    18.5679
   XZ=   137.5822   YZ=    14.1430   ZZ=   -96.2358
   Eigenvalues:  -323.1136  -230.2439    -8.7404
      4  O    Isotropic =  -379.0531   Anisotropy =   416.9479
   XX=  -394.2441   YX=   -13.9912   ZX=   -48.3250
   XY=   125.5984   YY=  -401.3542   ZY=  -269.7242
   XZ=    97.4650   YZ=  -265.1966   ZZ=  -341.5609
   Eigenvalues:  -653.5760  -382.4954  -101.0878
      5  O    Isotropic =  -386.9454   Anisotropy =   438.2562
   XX=  -418.2428   YX=   154.3555   ZX=   120.8739
   XY=     1.1619   YY=  -409.1471   ZY=  -281.4792
   XZ=   -25.7570   YZ=  -264.8474   ZZ=  -333.4463
   Eigenvalues:  -678.1889  -387.8727   -94.7746
      6  O    Isotropic =  -382.2917   Anisotropy =   436.3465
   XX=  -523.3377   YX=   -85.5868   ZX=   257.3063
   XY=    96.7274   YY=  -387.1273   ZY=   -34.1082
   XZ=   240.4948   YZ=    71.0680   ZZ=  -236.4102
   Eigenvalues:  -667.2301  -388.2510   -91.3940
      7  O    Isotropic =  -384.2193   Anisotropy =   415.7842
   XX=  -523.6869   YX=    62.8184   ZX=   234.8027
   XY=  -105.0181   YY=  -385.9847   ZY=   101.6622
   XZ=   236.2314   YZ=   -21.7263   ZZ=  -242.9865
   Eigenvalues:  -662.7639  -382.8643  -107.0299
      8  Br   Isotropic =  1672.6742   Anisotropy =  1944.2847
   XX=  1099.2624   YX=    94.8271   ZX=  -372.6125
   XY=   -37.9865   YY=  1040.5003   ZY=  -155.6683
   XZ=  -446.3764   YZ=   252.0503   ZZ=  2878.2598
   Eigenvalues:   983.6441  1065.5145  2968.8640
      9  Br   Isotropic =  2213.0753   Anisotropy =  1095.8645
   XX=  2166.8917   YX=  -172.3594   ZX=   -60.7310
   XY=   -65.7135   YY=  2924.3074   ZY=    17.0375
   XZ=   -79.2385   YZ=  -116.7514   ZZ=  1548.0267
   Eigenvalues:  1537.3298  2158.2443  2943.6516
     10  Br   Isotropic =  2216.1708   Anisotropy =  1107.5170
   XX=  2910.9407   YX=   141.4819   ZX=   200.3729
   XY=   -14.6401   YY=  2100.3923   ZY=   162.9860
   XZ=   214.9826   YZ=   231.5391   ZZ=  1637.1794
   Eigenvalues:  1542.2517  2151.7452  2954.5155
     11  Cl   Isotropic =   600.6825   Anisotropy =   718.3709
   XX=   404.7773   YX=   -35.9384   ZX=   -89.9046
   XY=    67.7311   YY=   362.2970   ZY=    13.9968
   XZ=  -257.1269   YZ=   -10.4247   ZZ=  1034.9731
   Eigenvalues:   345.3495   377.1015  1079.5964
 End of Minotr F.D. properties file   721 does not exist.
 End of Minotr F.D. properties file   722 does not exist.
 End of Minotr F.D. properties file   788 does not exist.
 Leave Link 1002 at Wed May 11 14:41:47 2022, MaxMem=  2013265920 cpu:      1865.6
 (Enter /scr/programas/g09/l601.exe)
 Copying SCF densities to generalized density rwf, IOpCl= 0 IROHF=0.

 **********************************************************************

            Population analysis using the SCF density.

 **********************************************************************

 Orbital symmetries:
       Occupied  (A) (A) (A) (A) (A) (A) (A) (A) (A) (A) (A) (A)
                 (A) (A) (A) (A) (A) (A) (A) (A) (A) (A) (A) (A)
                 (A) (A) (A) (A) (A) (A) (A) (A) (A) (A) (A) (A)
                 (A) (A) (A) (A) (A) (A) (A) (A) (A) (A) (A) (A)
                 (A) (A) (A) (A) (A) (A) (A) (A) (A) (A) (A) (A)
                 (A) (A) (A) (A) (A) (A) (A) (A) (A) (A) (A) (A)
                 (A) (A) (A) (A) (A) (A) (A) (A) (A) (A) (A) (A)
                 (A) (A) (A) (A) (A) (A) (A) (A) (A) (A) (A) (A)
                 (A) (A) (A) (A) (A) (A) (A) (A) (A) (A) (A) (A)
                 (A) (A) (A) (A) (A) (A) (A) (A) (A) (A) (A) (A)
                 (A) (A) (A) (A)
       Virtual   (A) (A) (A) (A) (A) (A) (A) (A) (A) (A) (A) (A)
                 (A) (A) (A) (A) (A) (A) (A) (A) (A) (A) (A) (A)
                 (A) (A) (A) (A) (A) (A) (A) (A) (A) (A) (A) (A)
                 (A) (A) (A) (A) (A) (A) (A) (A) (A) (A) (A) (A)
                 (A) (A) (A) (A) (A) (A) (A) (A) (A) (A) (A) (A)
                 (A) (A) (A) (A) (A) (A) (A) (A) (A) (A) (A) (A)
                 (A) (A) (A) (A) (A) (A) (A) (A) (A) (A) (A) (A)
                 (A) (A) (A) (A) (A) (A) (A) (A) (A) (A) (A) (A)
                 (A) (A) (A) (A) (A) (A) (A) (A) (A) (A) (A) (A)
                 (A) (A) (A) (A) (A) (A) (A) (A) (A) (A) (A) (A)
                 (A) (A) (A) (A) (A) (A) (A) (A) (A) (A) (A) (A)
                 (A) (A) (A) (A) (A) (A) (A) (A) (A) (A) (A) (A)
                 (A) (A) (A) (A) (A) (A) (A) (A) (A) (A) (A) (A)
                 (A) (A) (A) (A) (A) (A) (A) (A) (A) (A) (A) (A)
                 (A) (A) (A) (A) (A) (A) (A) (A) (A) (A) (A) (A)
                 (A) (A) (A) (A) (A) (A) (A) (A) (A) (A) (A) (A)
                 (A) (A) (A) (A) (A) (A) (A) (A) (A) (A) (A) (A)
                 (A) (A) (A) (A) (A) (A) (A) (A) (A) (A) (A) (A)
                 (A) (A) (A) (A) (A) (A) (A) (A) (A) (A) (A) (A)
                 (A) (A) (A) (A) (A) (A) (A) (A) (A) (A) (A) (A)
                 (A) (A) (A) (A) (A) (A) (A) (A) (A) (A) (A) (A)
                 (A) (A) (A) (A) (A) (A) (A) (A) (A) (A) (A) (A)
                 (A) (A) (A) (A) (A) (A) (A) (A) (A) (A) (A) (A)
                 (A) (A) (A) (A) (A) (A) (A) (A) (A) (A) (A) (A)
                 (A) (A) (A) (A) (A) (A) (A) (A) (A) (A) (A) (A)
                 (A) (A) (A) (A) (A) (A) (A) (A) (A) (A) (A) (A)
                 (A) (A) (A) (A) (A) (A) (A) (A) (A) (A) (A) (A)
                 (A) (A) (A) (A) (A) (A) (A) (A) (A) (A) (A) (A)
                 (A) (A) (A) (A) (A) (A) (A) (A) (A) (A) (A) (A)
                 (A) (A) (A) (A) (A) (A) (A) (A) (A) (A) (A) (A)
                 (A) (A) (A) (A) (A) (A) (A) (A) (A) (A) (A) (A)
                 (A) (A) (A) (A) (A) (A) (A) (A) (A) (A) (A) (A)
                 (A) (A) (A) (A) (A) (A) (A) (A) (A) (A) (A) (A)
                 (A) (A) (A) (A) (A) (A) (A) (A) (A)
 The electronic state is 1-A.
 Alpha  occ. eigenvalues -- **********-478.58443-478.57430-478.57429-427.60430
 Alpha  occ. eigenvalues -- -414.93339-414.93337-414.93333-100.53561 -99.98450
 Alpha  occ. eigenvalues --  -92.14117 -92.14114 -92.14087 -79.10046 -79.10029
 Alpha  occ. eigenvalues --  -79.09903 -79.09880 -79.09879 -61.50277 -61.49269
 Alpha  occ. eigenvalues --  -61.49268 -55.68766 -55.68461 -55.68460 -55.67727
 Alpha  occ. eigenvalues --  -55.67726 -55.67470 -55.67469 -55.67466 -55.67464
 Alpha  occ. eigenvalues --  -20.89913 -18.79587 -18.79550 -18.79452 -18.79440
 Alpha  occ. eigenvalues --  -17.46370 -17.46365 -17.46317 -14.18983 -14.18964
 Alpha  occ. eigenvalues --  -11.64826 -11.64796 -11.64317 -11.64257 -11.64251
 Alpha  occ. eigenvalues --   -9.11402  -8.33125  -8.32115  -8.32114  -6.95329
 Alpha  occ. eigenvalues --   -6.94522  -6.94520  -6.24019  -6.23134  -6.23131
 Alpha  occ. eigenvalues --   -6.22922  -6.22920  -6.22173  -6.22172  -6.22162
 Alpha  occ. eigenvalues --   -6.22159  -3.19629  -3.19622  -3.19585  -3.19322
 Alpha  occ. eigenvalues --   -3.19320  -3.19302  -3.18943  -2.92629  -2.44945
 Alpha  occ. eigenvalues --   -2.44721  -2.44719  -2.44067  -2.44067  -2.43871
 Alpha  occ. eigenvalues --   -2.43870  -2.43682  -2.43682  -2.43674  -2.43673
 Alpha  occ. eigenvalues --   -2.43123  -2.43123  -2.43121  -2.43121  -1.86573
 Alpha  occ. eigenvalues --   -1.86569  -1.86507  -1.13865  -1.13669  -0.97646
 Alpha  occ. eigenvalues --   -0.97433  -0.69017  -0.66080  -0.65076  -0.64705
 Alpha  occ. eigenvalues --   -0.58270  -0.58255  -0.49030  -0.48515  -0.47708
 Alpha  occ. eigenvalues --   -0.46905  -0.46477  -0.46249  -0.36800  -0.33719
 Alpha  occ. eigenvalues --   -0.33634  -0.33290  -0.32627  -0.29869  -0.29161
 Alpha  occ. eigenvalues --   -0.28427  -0.27952  -0.25589  -0.25277  -0.24241
 Alpha  occ. eigenvalues --   -0.24069  -0.22993  -0.22928  -0.22615  -0.22500
 Alpha  occ. eigenvalues --   -0.22155  -0.21516  -0.21344  -0.21207
 Alpha virt. eigenvalues --   -0.14410  -0.13167  -0.09579  -0.09438  -0.00525
 Alpha virt. eigenvalues --    0.00652   0.00935   0.01617   0.03039   0.03078
 Alpha virt. eigenvalues --    0.03164   0.03471   0.03834   0.05650   0.05757
 Alpha virt. eigenvalues --    0.06219   0.07309   0.07389   0.07693   0.08781
 Alpha virt. eigenvalues --    0.09418   0.09710   0.10400   0.11035   0.11305
 Alpha virt. eigenvalues --    0.11564   0.15924   0.16135   0.16171   0.17380
 Alpha virt. eigenvalues --    0.17711   0.18286   0.18578   0.19455   0.19836
 Alpha virt. eigenvalues --    0.20190   0.20999   0.21650   0.21883   0.22414
 Alpha virt. eigenvalues --    0.23311   0.23664   0.24230   0.24845   0.25077
 Alpha virt. eigenvalues --    0.25242   0.27702   0.28687   0.29801   0.30301
 Alpha virt. eigenvalues --    0.31125   0.31782   0.33076   0.34063   0.35018
 Alpha virt. eigenvalues --    0.35575   0.35890   0.37375   0.38173   0.39061
 Alpha virt. eigenvalues --    0.39516   0.39640   0.40394   0.44033   0.45089
 Alpha virt. eigenvalues --    0.45846   0.47351   0.48712   0.50842   0.52343
 Alpha virt. eigenvalues --    0.53652   0.54356   0.54464   0.55282   0.56407
 Alpha virt. eigenvalues --    0.57340   0.58836   0.59719   0.60987   0.62426
 Alpha virt. eigenvalues --    0.63218   0.64958   0.66060   0.67089   0.68016
 Alpha virt. eigenvalues --    0.68394   0.69285   0.70640   0.71019   0.71656
 Alpha virt. eigenvalues --    0.74515   0.74796   0.75469   0.75886   0.77306
 Alpha virt. eigenvalues --    0.78075   0.78816   0.79596   0.80293   0.80584
 Alpha virt. eigenvalues --    0.81372   0.83005   0.83247   0.84087   0.85897
 Alpha virt. eigenvalues --    0.86258   0.87556   0.89224   0.89539   0.90607
 Alpha virt. eigenvalues --    0.91403   0.91473   0.93244   0.93552   0.94118
 Alpha virt. eigenvalues --    0.94852   0.95437   0.96393   0.97650   0.99109
 Alpha virt. eigenvalues --    0.99986   1.00945   1.01115   1.02941   1.03765
 Alpha virt. eigenvalues --    1.04399   1.05519   1.06736   1.07112   1.07757
 Alpha virt. eigenvalues --    1.08190   1.09706   1.11570   1.12656   1.13241
 Alpha virt. eigenvalues --    1.14462   1.15343   1.16446   1.16826   1.17787
 Alpha virt. eigenvalues --    1.18134   1.19277   1.20271   1.20959   1.22325
 Alpha virt. eigenvalues --    1.22594   1.23111   1.23678   1.24422   1.25284
 Alpha virt. eigenvalues --    1.25957   1.26717   1.27162   1.27975   1.28732
 Alpha virt. eigenvalues --    1.30492   1.31008   1.31581   1.31787   1.33382
 Alpha virt. eigenvalues --    1.33667   1.34416   1.35137   1.36312   1.37304
 Alpha virt. eigenvalues --    1.38568   1.40683   1.42094   1.42683   1.42773
 Alpha virt. eigenvalues --    1.43968   1.46855   1.48538   1.50724   1.51042
 Alpha virt. eigenvalues --    1.52026   1.53444   1.54661   1.55328   1.62669
 Alpha virt. eigenvalues --    1.63551   1.65645   1.69269   1.70538   1.71145
 Alpha virt. eigenvalues --    1.73030   1.75860   1.76513   1.81343   1.86021
 Alpha virt. eigenvalues --    1.87151   1.89576   1.90095   1.92350   1.95193
 Alpha virt. eigenvalues --    1.99824   2.01395   2.04949   2.19487   2.36136
 Alpha virt. eigenvalues --    2.36717   2.39456   2.43682   2.44130   2.45493
 Alpha virt. eigenvalues --    2.49461   2.49551   2.52122   2.53633   2.54088
 Alpha virt. eigenvalues --    2.56083   2.56862   2.58516   2.65773   2.66430
 Alpha virt. eigenvalues --    2.67441   2.68991   2.69610   2.71004   2.74203
 Alpha virt. eigenvalues --    2.77233   2.78605   2.81164   2.86373   2.99878
 Alpha virt. eigenvalues --    3.06564   3.07567   3.11360   3.13715   3.14176
 Alpha virt. eigenvalues --    3.16806   3.17263   3.18088   3.18890   3.20110
 Alpha virt. eigenvalues --    3.20898   3.23806   3.27656   3.30224   3.37723
 Alpha virt. eigenvalues --    3.42577   3.47830   3.50281   3.58184   3.58429
 Alpha virt. eigenvalues --    3.71891   3.75291   3.76002   3.80519   3.84253
 Alpha virt. eigenvalues --    3.85570   3.87051   3.90819   3.94155   3.98677
 Alpha virt. eigenvalues --    4.01499   4.03182   4.04463   4.06137   4.07457
 Alpha virt. eigenvalues --    4.08003   4.09114   4.09187   4.17828   4.20940
 Alpha virt. eigenvalues --    4.27458   4.29867   4.30477   4.31421   4.31940
 Alpha virt. eigenvalues --    4.32300   4.32375   4.32544   4.33224   4.33830
 Alpha virt. eigenvalues --    4.34473   4.34778   4.35355   4.36574   4.36965
 Alpha virt. eigenvalues --    4.37471   4.37942   4.38045   4.39130   4.41274
 Alpha virt. eigenvalues --    4.42365   4.44455   4.45058   4.47961   4.48520
 Alpha virt. eigenvalues --    4.50907   4.51449   4.53200   5.40672   5.42811
 Alpha virt. eigenvalues --    5.65749   5.74182   5.75873   5.89550   5.90253
 Alpha virt. eigenvalues --    5.90923   5.94713   5.99805   6.01218   6.04085
 Alpha virt. eigenvalues --    6.04983   6.06870   6.08082   6.10212   6.11622
 Alpha virt. eigenvalues --    6.23425   6.32145   6.34802   6.86868   6.93126
 Alpha virt. eigenvalues --    7.00036   7.01865   8.42881   8.43134   8.43676
 Alpha virt. eigenvalues --    8.44890   8.46339   8.47773   8.49755   8.53679
 Alpha virt. eigenvalues --    8.57014   8.80807   9.74828   9.78725   9.80513
 Alpha virt. eigenvalues --    9.86589   9.86894   9.98352  10.04354  10.06938
 Alpha virt. eigenvalues --   14.05167  14.09447  14.12309  16.90369  20.28703
 Alpha virt. eigenvalues --   20.29316  20.30303  20.30630  20.31118  20.31566
 Alpha virt. eigenvalues --   20.37088  20.39549  20.41753  20.90484  20.96204
 Alpha virt. eigenvalues --   20.97871  22.98174  22.99619  25.89716  30.16424
 Alpha virt. eigenvalues --   30.22728  30.29411  30.29909  42.81551  42.84029
 Alpha virt. eigenvalues --   42.85095  42.97397  42.99146  65.11057  65.14429
 Alpha virt. eigenvalues --   65.16974  78.20565  81.94432  86.04005  86.08496
 Alpha virt. eigenvalues --   86.09984 112.73571 112.73971 112.74735 112.74876
 Alpha virt. eigenvalues --  112.75392 112.75740 112.79745 112.81241 112.82628
 Alpha virt. eigenvalues --  123.12366 123.14484 162.92248 162.98883 163.06172
 Alpha virt. eigenvalues --  163.06568 257.06629 282.45689 282.48469 282.50642
 Alpha virt. eigenvalues --  428.65323 428.68819 428.69901 431.82929 772.75763
 Alpha virt. eigenvalues -- 1043.624481043.648501043.666942068.370955495.18337
 Alpha virt. eigenvalues -- 5634.485725634.517365634.54330********************
          Condensed to atoms (all electrons):
               1          2          3          4          5          6
     1  Pt  77.912458  -0.034293  -0.029434   0.040289   0.063038   0.069378
     2  N   -0.034293   5.865393   0.007499   0.589341   0.606848  -0.000821
     3  N   -0.029434   0.007499   5.882171   0.001051  -0.000915   0.596020
     4  O    0.040289   0.589341   0.001051   7.560947  -0.078932   0.000770
     5  O    0.063038   0.606848  -0.000915  -0.078932   7.532890  -0.000003
     6  O    0.069378  -0.000821   0.596020   0.000770  -0.000003   7.535856
     7  O    0.050369  -0.002141   0.591875  -0.003346   0.000748  -0.074675
     8  Br   0.066507  -0.011074  -0.009478  -0.001355  -0.020530  -0.001763
     9  Br   0.052325  -0.010752  -0.013519  -0.000273  -0.018297   0.001193
    10  Br   0.047957  -0.013265  -0.013219   0.001398   0.001172  -0.019348
    11  Cl   0.033340   0.002198   0.004112  -0.020008  -0.001758  -0.023873
               7          8          9         10         11
     1  Pt   0.050369   0.066507   0.052325   0.047957   0.033340
     2  N   -0.002141  -0.011074  -0.010752  -0.013265   0.002198
     3  N    0.591875  -0.009478  -0.013519  -0.013219   0.004112
     4  O   -0.003346  -0.001355  -0.000273   0.001398  -0.020008
     5  O    0.000748  -0.020530  -0.018297   0.001172  -0.001758
     6  O   -0.074675  -0.001763   0.001193  -0.019348  -0.023873
     7  O    7.533320  -0.022444   0.001417  -0.000145  -0.001632
     8  Br  -0.022444  35.362536  -0.022853  -0.045033  -0.005890
     9  Br   0.001417  -0.022853  35.519175  -0.058863  -0.063930
    10  Br  -0.000145  -0.045033  -0.058863  35.519881  -0.036599
    11  Cl  -0.001632  -0.005890  -0.063930  -0.036599  17.438606
 Mulliken charges:
               1
     1  Pt  -0.271932
     2  N    0.001067
     3  N   -0.016163
     4  O   -0.089883
     5  O   -0.084260
     6  O   -0.082735
     7  O   -0.073347
     8  Br  -0.288622
     9  Br  -0.385623
    10  Br  -0.383936
    11  Cl  -0.324566
 Sum of Mulliken charges =  -2.00000
 Mulliken charges with hydrogens summed into heavy atoms:
               1
     1  Pt  -0.271932
     2  N    0.001067
     3  N   -0.016163
     4  O   -0.089883
     5  O   -0.084260
     6  O   -0.082735
     7  O   -0.073347
     8  Br  -0.288622
     9  Br  -0.385623
    10  Br  -0.383936
    11  Cl  -0.324566
 Electronic spatial extent (au):  <R**2>=           4296.1342
 Charge=             -2.0000 electrons
 Dipole moment (field-independent basis, Debye):
    X=             -0.8172    Y=             -0.6765    Z=              1.9579  Tot=              2.2268
 Quadrupole moment (field-independent basis, Debye-Ang):
   XX=           -166.3600   YY=           -165.7799   ZZ=           -163.1379
   XY=             -0.0212   XZ=              1.4104   YZ=             -1.5962
 Traceless Quadrupole moment (field-independent basis, Debye-Ang):
   XX=             -1.2674   YY=             -0.6873   ZZ=              1.9547
   XY=             -0.0212   XZ=              1.4104   YZ=             -1.5962
 Octapole moment (field-independent basis, Debye-Ang**2):
  XXX=             20.4402  YYY=             37.6853  ZZZ=             51.4305  XYY=              9.6926
  XXY=             13.7436  XXZ=             16.4824  XZZ=              6.1021  YZZ=             13.4655
  YYZ=             18.4196  XYZ=              0.0237
 Hexadecapole moment (field-independent basis, Debye-Ang**3):
 XXXX=          -1846.8973 YYYY=          -1859.6650 ZZZZ=          -1603.1488 XXXY=            -13.4341
 XXXZ=            -22.1146 YYYX=              4.1081 YYYZ=            -14.5251 ZZZX=              4.9171
 ZZZY=            -16.7345 XXYY=           -586.3366 XXZZ=           -548.4986 YYZZ=           -542.3715
 XXYZ=            -23.0125 YYXZ=              5.5326 ZZXY=             -8.4860
 N-N= 4.455134462313D+03 E-N=-6.995173227397D+04  KE= 2.535171676515D+04
 Calculating spin-rotation constants.
 Leave Link  601 at Wed May 11 14:41:58 2022, MaxMem=  2013265920 cpu:        27.0
 (Enter /scr/programas/g09/l9999.exe)
 1\1\GINC-NQTCM02\SP\RPBEPBE\Gen\Br3Cl1N2O4Pt1(2-)\NQTCM\11-May-2022\0\
 \#PBEPBE/gen scf=maxcycle=200 NMR=GIAO Scrf=(solvent=water)\\estrutura
  47\\-2,1\Pt,0,-0.076727,-0.13963,-0.211256\N,0,-2.128876,-0.43024,-0.
 618487\N,0,0.178201,-2.235864,-0.222972\O,0,-2.418893,-1.276877,-1.444
 304\O,0,-2.952796,0.241143,-0.029772\O,0,1.142273,-2.706926,-0.792182\
 O,0,-0.66597,-2.910419,0.338789\Br,0,-0.512972,-0.216785,2.280235\Br,0
 ,-0.408884,2.415829,-0.225634\Br,0,2.430556,0.197877,0.274184\Cl,0,0.3
 52826,-0.065515,-2.571738\\Version=EM64L-G09RevD.01\State=1-A\HF=-2568
 5.2905312\RMSD=6.899e-09\Dipole=-0.3214981,-0.2661875,0.7702919\Quadru
 pole=-0.9423051,-0.5109942,1.4532993,-0.0157551,1.0486588,-1.1866425\P
 G=C01 [X(Br3Cl1N2O4Pt1)]\\@


 THOUGH I SPEAK WITH THE TONGUES OF MEN AND OF ANGELS, 
 AND HAVE NOT LOVE,
 I AM BECOME AS SOUNDING BRASS, A TINKLING CYMBAL.
 AND THOUGH I HAVE THE GIFT OF PROPHECY,
 AND UNDERSTAND ALL MYSTERIES, AND ALL KNOWLEDGE.
 AND THOUGH I HAVE ALL FAITH, SO THAT I COULD REMOVE MOUNTAINS,
 AND HAVE NOT LOVE, I AM NOTHING.
 AND THOUGH I BESTOW ALL MY GOODS TO FEED THE POOR,
 AND THOUGH I GIVE MY BODY TO BE BURNED,
 AND HAVE NOT LOVE IT PROFITETH ME NOTHING.
 LOVE SUFFERETH LONG, AND IS KIND,
 LOVE ENVIETH NOT,
 LOVE VAUNTETH NOT ITSELF, IS NOT PUFFED UP,
 DOTH NOT BEHAVE ITSELF UNSEEMLY, SEEKETH NOT HER OWN,
 IS NOT EASILY PROVOKED, THINKETH NO EVIL,
 REJOICETH NOT IN INIQUITY, BUT REJOICETH IN THE TRUTH,
 BEARETH ALL THINGS, BELIEVETH ALL THINGS,
 HOPETH ALL THINGS, ENDURETH ALL THINGS.
 LOVE NEVER FAILETH, BUT WHETHER THERE BE PROPHECIES, THEY SHALL FAIL, 
 WHETHER THERE BE TONGUES, THEY SHALL CEASE,
 WHETHER THERE BE KNOWLEDGE, IT SHALL VANISH AWAY.
 FOR WE KNOW IN PART, AND WE PROPHESY IN PART.
 BUT WHEN THAT WHICH IS PERFECT IS COME, THEN THAT WHICH IS IN PART 
 SHALL BE DONE AWAY. 
 WHEN I WAS A CHILD, I SPAKE AS A CHILD, I UNDERSTOOD AS A CHILD, 
 I THOUGHT AS A CHILD.
 BUT WHEN I BECAME A MAN, I PUT AWAY CHILDISH THINGS.
 FOR NOW WE SEE THROUGH A GLASS, DARKLY, BUT THEN FACE TO FACE.
 NOW I KNOW IN PART. BUT THEN SHALL I KNOW EVEN AS ALSO I AM KNOWN.
 AND NOW ABIDETH FAITH, HOPE AND LOVE, THESE THREE.
 BUT THE GREATEST OF THESE IS LOVE.

                     I CORINTHIANS 13
 Job cpu time:       0 days  1 hours 21 minutes 47.5 seconds.
 File lengths (MBytes):  RWF=    210 Int=      0 D2E=      0 Chk=     17 Scr=      1
 Normal termination of Gaussian 09 at Wed May 11 14:41:59 2022.
