 Entering Gaussian System, Link 0=g09
 Input=estrutura39freq_LANL2DZ_TZVP.com
 Output=estrutura39freq_LANL2DZ_TZVP.log
 Initial command:
 /scr/programas/g09/l1.exe "/scr/diego/Gau-6918.inp" -scrdir="/scr/diego/"
 Entering Link 1 = /scr/programas/g09/l1.exe PID=      6920.
  
 Copyright (c) 1988,1990,1992,1993,1995,1998,2003,2009,2013,
            Gaussian, Inc.  All Rights Reserved.
  
 This is part of the Gaussian(R) 09 program.  It is based on
 the Gaussian(R) 03 system (copyright 2003, Gaussian, Inc.),
 the Gaussian(R) 98 system (copyright 1998, Gaussian, Inc.),
 the Gaussian(R) 94 system (copyright 1995, Gaussian, Inc.),
 the Gaussian 92(TM) system (copyright 1992, Gaussian, Inc.),
 the Gaussian 90(TM) system (copyright 1990, Gaussian, Inc.),
 the Gaussian 88(TM) system (copyright 1988, Gaussian, Inc.),
 the Gaussian 86(TM) system (copyright 1986, Carnegie Mellon
 University), and the Gaussian 82(TM) system (copyright 1983,
 Carnegie Mellon University). Gaussian is a federally registered
 trademark of Gaussian, Inc.
  
 This software contains proprietary and confidential information,
 including trade secrets, belonging to Gaussian, Inc.
  
 This software is provided under written license and may be
 used, copied, transmitted, or stored only in accord with that
 written license.
  
 The following legend is applicable only to US Government
 contracts under FAR:
  
                    RESTRICTED RIGHTS LEGEND
  
 Use, reproduction and disclosure by the US Government is
 subject to restrictions as set forth in subparagraphs (a)
 and (c) of the Commercial Computer Software - Restricted
 Rights clause in FAR 52.227-19.
  
 Gaussian, Inc.
 340 Quinnipiac St., Bldg. 40, Wallingford CT 06492
  
  
 ---------------------------------------------------------------
 Warning -- This program may not be used in any manner that
 competes with the business of Gaussian, Inc. or will provide
 assistance to any competitor of Gaussian, Inc.  The licensee
 of this program is prohibited from giving any competitor of
 Gaussian, Inc. access to this program.  By using this program,
 the user acknowledges that Gaussian, Inc. is engaged in the
 business of creating and licensing software in the field of
 computational chemistry and represents and warrants to the
 licensee that it is not a competitor of Gaussian, Inc. and that
 it will not use this program in any manner prohibited above.
 ---------------------------------------------------------------
  

 Cite this work as:
 Gaussian 09, Revision D.01,
 M. J. Frisch, G. W. Trucks, H. B. Schlegel, G. E. Scuseria, 
 M. A. Robb, J. R. Cheeseman, G. Scalmani, V. Barone, B. Mennucci, 
 G. A. Petersson, H. Nakatsuji, M. Caricato, X. Li, H. P. Hratchian, 
 A. F. Izmaylov, J. Bloino, G. Zheng, J. L. Sonnenberg, M. Hada, 
 M. Ehara, K. Toyota, R. Fukuda, J. Hasegawa, M. Ishida, T. Nakajima, 
 Y. Honda, O. Kitao, H. Nakai, T. Vreven, J. A. Montgomery, Jr., 
 J. E. Peralta, F. Ogliaro, M. Bearpark, J. J. Heyd, E. Brothers, 
 K. N. Kudin, V. N. Staroverov, T. Keith, R. Kobayashi, J. Normand, 
 K. Raghavachari, A. Rendell, J. C. Burant, S. S. Iyengar, J. Tomasi, 
 M. Cossi, N. Rega, J. M. Millam, M. Klene, J. E. Knox, J. B. Cross, 
 V. Bakken, C. Adamo, J. Jaramillo, R. Gomperts, R. E. Stratmann, 
 O. Yazyev, A. J. Austin, R. Cammi, C. Pomelli, J. W. Ochterski, 
 R. L. Martin, K. Morokuma, V. G. Zakrzewski, G. A. Voth, 
 P. Salvador, J. J. Dannenberg, S. Dapprich, A. D. Daniels, 
 O. Farkas, J. B. Foresman, J. V. Ortiz, J. Cioslowski, 
 and D. J. Fox, Gaussian, Inc., Wallingford CT, 2013.
 
 ******************************************
 Gaussian 09:  EM64L-G09RevD.01 24-Apr-2013
                30-Oct-2021 
 ******************************************
 %mem=15Gb
 %nproc=4
 Will use up to    4 processors via shared memory.
 ----------------------------------------------------------
 #PBEPBE/gen scf=maxcycle=200 NMR=GIAO Scrf=(solvent=water)
 ----------------------------------------------------------
 1/38=1/1;
 2/12=2,17=6,18=5,40=1/2;
 3/5=7,11=2,16=1,25=1,30=1,70=2201,72=1,74=1009/1,2,8,3;
 4//1;
 5/5=2,7=200,38=5,53=1/2;
 8/6=1,10=90,11=11/1;
 10/13=100,45=16/2;
 6/7=2,8=2,9=2,10=2,28=1/1;
 99/9=1/99;
 Leave Link    1 at Sat Oct 30 05:01:56 2021, MaxMem=  2013265920 cpu:         0.2
 (Enter /scr/programas/g09/l101.exe)
 ------------
 estrutura 39
 ------------
 Symbolic Z-matrix:
 Charge = -2 Multiplicity = 1
 Pt                    0.00071   0.29135  -0.01121 
 Br                    1.78971  -1.49786   0.06871 
 N                    -0.02499   0.3887    2.11643 
 O                     1.03667   0.38021   2.71867 
 O                    -1.10018   0.4618    2.68954 
 Br                   -1.7987   -1.48845   0.04483 
 N                     0.02919   0.22071  -2.13997 
 O                     0.08296   1.27181  -2.75783 
 O                    -0.00849  -0.864    -2.69892 
 Cl                   -1.69622   1.98873  -0.11139 
 Cl                    1.70457   1.98369  -0.03841 
 
 NAtoms=     11 NQM=       11 NQMF=       0 NMMI=      0 NMMIF=      0
                NMic=       0 NMicF=      0.
                    Isotopes and Nuclear Properties:
 (Nuclear quadrupole moments (NQMom) in fm**2, nuclear magnetic moments (NMagM)
  in nuclear magnetons)

  Atom         1           2           3           4           5           6           7           8           9          10
 IAtWgt=         195          79          14          16          16          79          14          16          16          35
 AtmWgt= 194.9648000  78.9183361  14.0030740  15.9949146  15.9949146  78.9183361  14.0030740  15.9949146  15.9949146  34.9688527
 NucSpn=           1           3           2           0           0           3           2           0           0           3
 AtZEff=   0.0000000   0.0000000   0.0000000   0.0000000   0.0000000   0.0000000   0.0000000   0.0000000   0.0000000   0.0000000
 NQMom=    0.0000000  31.3000000   2.0440000   0.0000000   0.0000000  31.3000000   2.0440000   0.0000000   0.0000000  -8.1650000
 NMagM=    0.6095000   2.1063990   0.4037610   0.0000000   0.0000000   2.1063990   0.4037610   0.0000000   0.0000000   0.8218740
 AtZNuc=  78.0000000  35.0000000   7.0000000   8.0000000   8.0000000  35.0000000   7.0000000   8.0000000   8.0000000  17.0000000

  Atom        11
 IAtWgt=          35
 AtmWgt=  34.9688527
 NucSpn=           3
 AtZEff=   0.0000000
 NQMom=   -8.1650000
 NMagM=    0.8218740
 AtZNuc=  17.0000000
 Leave Link  101 at Sat Oct 30 05:01:56 2021, MaxMem=  2013265920 cpu:         0.4
 (Enter /scr/programas/g09/l202.exe)
                          Input orientation:                          
 ---------------------------------------------------------------------
 Center     Atomic      Atomic             Coordinates (Angstroms)
 Number     Number       Type             X           Y           Z
 ---------------------------------------------------------------------
      1         78           0        0.000713    0.291354   -0.011206
      2         35           0        1.789710   -1.497864    0.068705
      3          7           0       -0.024988    0.388699    2.116432
      4          8           0        1.036666    0.380212    2.718669
      5          8           0       -1.100180    0.461801    2.689537
      6         35           0       -1.798703   -1.488452    0.044833
      7          7           0        0.029190    0.220711   -2.139967
      8          8           0        0.082957    1.271806   -2.757832
      9          8           0       -0.008485   -0.863997   -2.698918
     10         17           0       -1.696215    1.988728   -0.111390
     11         17           0        1.704571    1.983686   -0.038414
 ---------------------------------------------------------------------
                    Distance matrix (angstroms):
                    1          2          3          4          5
     1  Pt   0.000000
     2  Br   2.531442   0.000000
     3  N    2.130019   3.323467   0.000000
     4  O    2.921183   3.334150   1.220603   0.000000
     5  O    2.921477   4.365835   1.220586   2.138601   0.000000
     6  Br   2.531550   3.588505   3.310783   4.322108   3.359446
     7  N    2.130123   3.306231   4.260057   4.964554   4.965653
     8  O    2.917534   4.309686   4.954794   5.629970   5.632917
     9  O    2.925528   3.360808   4.975652   5.656027   5.655527
    10  Cl   2.402224   4.933602   3.211897   4.250317   3.245297
    11  Cl   2.401637   3.484238   3.190410   3.258640   4.198152
                    6          7          8          9         10
     6  Br   0.000000
     7  N    3.322015   0.000000
     8  O    4.360573   1.220430   0.000000
     9  O    3.335115   1.220835   2.138571   0.000000
    10  Cl   3.482196   3.196566   3.268499   4.204970   0.000000
    11  Cl   4.933113   3.214266   3.245249   4.257011   3.401573
                   11
    11  Cl   0.000000
 Stoichiometry    Br2Cl2N2O4Pt(2-)
 Framework group  C1[X(Br2Cl2N2O4Pt)]
 Deg. of freedom    27
 Full point group                 C1      NOp   1
 Largest Abelian subgroup         C1      NOp   1
 Largest concise Abelian subgroup C1      NOp   1
                         Standard orientation:                         
 ---------------------------------------------------------------------
 Center     Atomic      Atomic             Coordinates (Angstroms)
 Number     Number       Type             X           Y           Z
 ---------------------------------------------------------------------
      1         78           0       -0.000714    0.291354    0.011206
      2         35           0       -1.789707   -1.497867   -0.068705
      3          7           0        0.024987    0.388699   -2.116432
      4          8           0       -1.036667    0.380210   -2.718669
      5          8           0        1.100179    0.461803   -2.689537
      6         35           0        1.798706   -1.488449   -0.044833
      7          7           0       -0.029190    0.220711    2.139967
      8          8           0       -0.082959    1.271806    2.757832
      9          8           0        0.008486   -0.863997    2.698918
     10         17           0        1.696211    1.988731    0.111390
     11         17           0       -1.704575    1.983683    0.038414
 ---------------------------------------------------------------------
 Rotational constants (GHZ):      0.3916420      0.3752062      0.3515718
 Leave Link  202 at Sat Oct 30 05:01:56 2021, MaxMem=  2013265920 cpu:         0.0
 (Enter /scr/programas/g09/l301.exe)
 General basis read from cards:  (5D, 7F)
 Centers:       3      7
 S 6 1.00
     Exponent=  1.2238326969D+04 Coefficients=  5.6000000000D-04
     Exponent=  4.0794423230D+03 Coefficients=  7.7000000000D-04
     Exponent=  1.3598141077D+03 Coefficients=  4.0600000000D-03
     Exponent=  4.5327136922D+02 Coefficients=  1.3910000000D-02
     Exponent=  1.5109045641D+02 Coefficients=  5.2990000000D-02
     Exponent=  5.0363485469D+01 Coefficients=  1.6952000000D-01
 S 1 1.00
     Exponent=  1.6787828490D+01 Coefficients=  1.0000000000D+00
 S 1 1.00
     Exponent=  5.5959428299D+00 Coefficients=  1.0000000000D+00
 S 1 1.00
     Exponent=  1.8653142766D+00 Coefficients=  1.0000000000D+00
 S 1 1.00
     Exponent=  6.2177142554D-01 Coefficients=  1.0000000000D+00
 S 1 1.00
     Exponent=  2.0725714185D-01 Coefficients=  1.0000000000D+00
 P 4 1.00
     Exponent=  5.4142548249D+01 Coefficients=  3.9700000000D-03
     Exponent=  1.6659245615D+01 Coefficients=  1.9540000000D-02
     Exponent=  5.1259217277D+00 Coefficients=  9.9790000000D-02
     Exponent=  1.5772066854D+00 Coefficients=  3.2845000000D-01
 P 1 1.00
     Exponent=  4.8529436475D-01 Coefficients=  1.0000000000D+00
 P 1 1.00
     Exponent=  1.4932134300D-01 Coefficients=  1.0000000000D+00
 D 1 1.00
     Exponent=  4.7700000000D-01 Coefficients=  1.0000000000D+00
 D 1 1.00
     Exponent=  1.5026000000D-01 Coefficients=  1.0000000000D+00
 ****
 Centers:       4      5      8      9
 S 6 1.00
     Exponent=  1.6178118231D+04 Coefficients=  6.0000000000D-04
     Exponent=  5.3927060771D+03 Coefficients=  7.8000000000D-04
     Exponent=  1.7975686924D+03 Coefficients=  4.1000000000D-03
     Exponent=  5.9918956413D+02 Coefficients=  1.3880000000D-02
     Exponent=  1.9972985471D+02 Coefficients=  5.2770000000D-02
     Exponent=  6.6576618236D+01 Coefficients=  1.6924000000D-01
 S 1 1.00
     Exponent=  2.2192206079D+01 Coefficients=  1.0000000000D+00
 S 1 1.00
     Exponent=  7.3974020263D+00 Coefficients=  1.0000000000D+00
 S 1 1.00
     Exponent=  2.4658006754D+00 Coefficients=  1.0000000000D+00
 S 1 1.00
     Exponent=  8.2193355847D-01 Coefficients=  1.0000000000D+00
 S 1 1.00
     Exponent=  2.7397785282D-01 Coefficients=  1.0000000000D+00
 P 4 1.00
     Exponent=  7.3854398670D+01 Coefficients=  4.0200000000D-03
     Exponent=  2.2724430360D+01 Coefficients=  2.0130000000D-02
     Exponent=  6.9921324184D+00 Coefficients=  1.0470000000D-01
     Exponent=  2.1514253595D+00 Coefficients=  3.3605000000D-01
 P 1 1.00
     Exponent=  6.6197703370D-01 Coefficients=  1.0000000000D+00
 P 1 1.00
     Exponent=  2.0368524114D-01 Coefficients=  1.0000000000D+00
 D 1 1.00
     Exponent=  9.2880000000D-01 Coefficients=  1.0000000000D+00
 D 1 1.00
     Exponent=  2.2975000000D-01 Coefficients=  1.0000000000D+00
 ****
 Centers:      10     11
 S 7 1.00
     Exponent=  7.7142817164D+04 Coefficients=  1.0600000000D-03
     Exponent=  2.8051933514D+04 Coefficients=  6.4000000000D-04
     Exponent=  1.0200703096D+04 Coefficients=  3.9600000000D-03
     Exponent=  3.7093465804D+03 Coefficients=  9.8300000000D-03
     Exponent=  1.3488533020D+03 Coefficients=  3.2690000000D-02
     Exponent=  4.9049210981D+02 Coefficients=  9.9520000000D-02
     Exponent=  1.7836076720D+02 Coefficients=  2.6555000000D-01
 S 1 1.00
     Exponent=  6.4858460801D+01 Coefficients=  1.0000000000D+00
 S 1 1.00
     Exponent=  2.3584894837D+01 Coefficients=  1.0000000000D+00
 S 1 1.00
     Exponent=  8.5763253951D+00 Coefficients=  1.0000000000D+00
 S 1 1.00
     Exponent=  3.1186637801D+00 Coefficients=  1.0000000000D+00
 S 1 1.00
     Exponent=  1.1340595564D+00 Coefficients=  1.0000000000D+00
 S 1 1.00
     Exponent=  4.1238529323D-01 Coefficients=  1.0000000000D+00
 S 1 1.00
     Exponent=  1.4995828845D-01 Coefficients=  1.0000000000D+00
 S 1 1.00
     Exponent=  5.4530286708D-02 Coefficients=  1.0000000000D+00
 P 5 1.00
     Exponent=  6.9498536057D+02 Coefficients=  2.0000000000D-03
     Exponent=  2.3166178686D+02 Coefficients=  8.9500000000D-03
     Exponent=  7.7220595619D+01 Coefficients=  5.1130000000D-02
     Exponent=  2.5740198540D+01 Coefficients=  2.1011000000D-01
     Exponent=  8.5800661799D+00 Coefficients=  4.9738000000D-01
 P 1 1.00
     Exponent=  2.8600220600D+00 Coefficients=  1.0000000000D+00
 P 1 1.00
     Exponent=  9.5334068665D-01 Coefficients=  1.0000000000D+00
 P 1 1.00
     Exponent=  3.1778022888D-01 Coefficients=  1.0000000000D+00
 P 1 1.00
     Exponent=  1.0592674296D-01 Coefficients=  1.0000000000D+00
 P 1 1.00
     Exponent=  3.5308914320D-02 Coefficients=  1.0000000000D+00
 D 1 1.00
     Exponent=  5.5696000000D-01 Coefficients=  1.0000000000D+00
 D 1 1.00
     Exponent=  1.5619100000D-01 Coefficients=  1.0000000000D+00
 ****
 Centers:       2      6
 S 7 1.00
     Exponent=  3.4867099512D+05 Coefficients=  2.4100000000D-03
     Exponent=  1.3946839805D+05 Coefficients=  1.2000000000D-04
     Exponent=  5.5787359218D+04 Coefficients=  5.8500000000D-03
     Exponent=  2.2314943687D+04 Coefficients=  8.2100000000D-03
     Exponent=  8.9259774750D+03 Coefficients=  2.4090000000D-02
     Exponent=  3.5703909900D+03 Coefficients=  5.7250000000D-02
     Exponent=  1.4281563960D+03 Coefficients=  1.4467000000D-01
 S 1 1.00
     Exponent=  5.7126255840D+02 Coefficients=  1.0000000000D+00
 S 1 1.00
     Exponent=  2.2850502336D+02 Coefficients=  1.0000000000D+00
 S 1 1.00
     Exponent=  9.1402009344D+01 Coefficients=  1.0000000000D+00
 S 1 1.00
     Exponent=  3.6560803737D+01 Coefficients=  1.0000000000D+00
 S 1 1.00
     Exponent=  1.4624321495D+01 Coefficients=  1.0000000000D+00
 S 1 1.00
     Exponent=  5.8497285980D+00 Coefficients=  1.0000000000D+00
 S 1 1.00
     Exponent=  2.3398914392D+00 Coefficients=  1.0000000000D+00
 S 1 1.00
     Exponent=  9.3595657568D-01 Coefficients=  1.0000000000D+00
 S 1 1.00
     Exponent=  3.7438263027D-01 Coefficients=  1.0000000000D+00
 S 1 1.00
     Exponent=  1.4975305211D-01 Coefficients=  1.0000000000D+00
 S 1 1.00
     Exponent=  5.9901220843D-02 Coefficients=  1.0000000000D+00
 P 5 1.00
     Exponent=  4.2715043612D+03 Coefficients=  2.0900000000D-03
     Exponent=  1.5532743132D+03 Coefficients=  5.5700000000D-03
     Exponent=  5.6482702297D+02 Coefficients=  3.0250000000D-02
     Exponent=  2.0539164472D+02 Coefficients=  1.2196000000D-01
     Exponent=  7.4687870806D+01 Coefficients=  3.7861000000D-01
 P 1 1.00
     Exponent=  2.7159225748D+01 Coefficients=  1.0000000000D+00
 P 1 1.00
     Exponent=  9.8760820901D+00 Coefficients=  1.0000000000D+00
 P 1 1.00
     Exponent=  3.5913025782D+00 Coefficients=  1.0000000000D+00
 P 1 1.00
     Exponent=  1.3059282103D+00 Coefficients=  1.0000000000D+00
 P 1 1.00
     Exponent=  4.7488298555D-01 Coefficients=  1.0000000000D+00
 P 1 1.00
     Exponent=  1.7268472202D-01 Coefficients=  1.0000000000D+00
 P 1 1.00
     Exponent=  6.2794444370D-02 Coefficients=  1.0000000000D+00
 P 1 1.00
     Exponent=  2.2834343407D-02 Coefficients=  1.0000000000D+00
 D 4 1.00
     Exponent=  1.5776624282D+02 Coefficients=  7.9800000000D-03
     Exponent=  5.2588747607D+01 Coefficients=  4.9870000000D-02
     Exponent=  1.7529582536D+01 Coefficients=  2.2405000000D-01
     Exponent=  5.8431941786D+00 Coefficients=  4.4250000000D-01
 D 1 1.00
     Exponent=  1.9477313929D+00 Coefficients=  1.0000000000D+00
 D 1 1.00
     Exponent=  6.4924379762D-01 Coefficients=  1.0000000000D+00
 F 1 1.00
     Exponent=  1.6480000000D+00 Coefficients=  1.0000000000D+00
 F 1 1.00
     Exponent=  4.5490000000D-01 Coefficients=  1.0000000000D+00
 ****
 Centers:       1
 S 9 1.00
     Exponent=  2.1644816090D+06 Coefficients=  1.2320000000D-02
     Exponent=  1.0822408045D+06 Coefficients=  1.2970000000D-02
     Exponent=  5.4112040224D+05 Coefficients=  2.6370000000D-02
     Exponent=  2.7056020112D+05 Coefficients=  9.0400000000D-03
     Exponent=  1.3528010056D+05 Coefficients=  3.4980000000D-02
     Exponent=  6.7640050280D+04 Coefficients=  1.2220000000D-02
     Exponent=  3.3820025140D+04 Coefficients=  6.0520000000D-02
     Exponent=  1.6910012570D+04 Coefficients=  6.4930000000D-02
     Exponent=  8.4550062850D+03 Coefficients=  1.3819000000D-01
 S 1 1.00
     Exponent=  4.2275031425D+03 Coefficients=  1.0000000000D+00
 S 1 1.00
     Exponent=  2.1137515713D+03 Coefficients=  1.0000000000D+00
 S 1 1.00
     Exponent=  1.0568757856D+03 Coefficients=  1.0000000000D+00
 S 1 1.00
     Exponent=  5.2843789281D+02 Coefficients=  1.0000000000D+00
 S 1 1.00
     Exponent=  2.6421894641D+02 Coefficients=  1.0000000000D+00
 S 1 1.00
     Exponent=  1.3210947320D+02 Coefficients=  1.0000000000D+00
 S 1 1.00
     Exponent=  6.6054736602D+01 Coefficients=  1.0000000000D+00
 S 1 1.00
     Exponent=  3.3027368301D+01 Coefficients=  1.0000000000D+00
 S 1 1.00
     Exponent=  1.6513684150D+01 Coefficients=  1.0000000000D+00
 S 1 1.00
     Exponent=  8.2568420752D+00 Coefficients=  1.0000000000D+00
 S 1 1.00
     Exponent=  4.1284210376D+00 Coefficients=  1.0000000000D+00
 S 1 1.00
     Exponent=  2.0642105188D+00 Coefficients=  1.0000000000D+00
 S 1 1.00
     Exponent=  1.0321052594D+00 Coefficients=  1.0000000000D+00
 S 1 1.00
     Exponent=  5.1605262970D-01 Coefficients=  1.0000000000D+00
 S 1 1.00
     Exponent=  2.5802631485D-01 Coefficients=  1.0000000000D+00
 S 1 1.00
     Exponent=  1.2901315743D-01 Coefficients=  1.0000000000D+00
 S 1 1.00
     Exponent=  6.4506578713D-02 Coefficients=  1.0000000000D+00
 P 7 1.00
     Exponent=  3.2357915258D+04 Coefficients=  5.0200000000D-03
     Exponent=  1.4381295670D+04 Coefficients=  2.0200000000D-03
     Exponent=  6.3916869645D+03 Coefficients=  1.8070000000D-02
     Exponent=  2.8407497620D+03 Coefficients=  3.6620000000D-02
     Exponent=  1.2625554498D+03 Coefficients=  1.1172000000D-01
     Exponent=  5.6113575545D+02 Coefficients=  2.5586000000D-01
     Exponent=  2.4939366909D+02 Coefficients=  4.2608000000D-01
 P 1 1.00
     Exponent=  1.1084163071D+02 Coefficients=  1.0000000000D+00
 P 1 1.00
     Exponent=  4.9262946981D+01 Coefficients=  1.0000000000D+00
 P 1 1.00
     Exponent=  2.1894643103D+01 Coefficients=  1.0000000000D+00
 P 1 1.00
     Exponent=  9.7309524900D+00 Coefficients=  1.0000000000D+00
 P 1 1.00
     Exponent=  4.3248677733D+00 Coefficients=  1.0000000000D+00
 P 1 1.00
     Exponent=  1.9221634548D+00 Coefficients=  1.0000000000D+00
 P 1 1.00
     Exponent=  8.5429486881D-01 Coefficients=  1.0000000000D+00
 P 1 1.00
     Exponent=  3.7968660836D-01 Coefficients=  1.0000000000D+00
 P 1 1.00
     Exponent=  1.6874960372D-01 Coefficients=  1.0000000000D+00
 P 1 1.00
     Exponent=  7.4999823874D-02 Coefficients=  1.0000000000D+00
 P 1 1.00
     Exponent=  3.3333255055D-02 Coefficients=  1.0000000000D+00
 D 5 1.00
     Exponent=  1.9119003508D+03 Coefficients=  4.3300000000D-03
     Exponent=  7.6476014031D+02 Coefficients=  1.7780000000D-02
     Exponent=  3.0590405613D+02 Coefficients=  8.9710000000D-02
     Exponent=  1.2236162245D+02 Coefficients=  3.1123000000D-01
     Exponent=  4.8944648980D+01 Coefficients=  5.3206000000D-01
 D 1 1.00
     Exponent=  1.9577859592D+01 Coefficients=  1.0000000000D+00
 D 1 1.00
     Exponent=  7.8311438368D+00 Coefficients=  1.0000000000D+00
 D 1 1.00
     Exponent=  3.1324575347D+00 Coefficients=  1.0000000000D+00
 D 1 1.00
     Exponent=  1.2529830139D+00 Coefficients=  1.0000000000D+00
 D 1 1.00
     Exponent=  5.0119320556D-01 Coefficients=  1.0000000000D+00
 D 1 1.00
     Exponent=  2.0047728222D-01 Coefficients=  1.0000000000D+00
 D 1 1.00
     Exponent=  8.0190912889D-02 Coefficients=  1.0000000000D+00
 D 1 1.00
     Exponent=  3.2076365156D-02 Coefficients=  1.0000000000D+00
 F 4 1.00
     Exponent=  8.2289680979D+01 Coefficients=  6.1870000000D-02
     Exponent=  2.9923520356D+01 Coefficients=  2.4823000000D-01
     Exponent=  1.0881280130D+01 Coefficients=  4.9956000000D-01
     Exponent=  3.9568291380D+00 Coefficients=  4.0380000000D-01
 F 1 1.00
     Exponent=  1.4388469593D+00 Coefficients=  1.0000000000D+00
 F 1 1.00
     Exponent=  5.2321707610D-01 Coefficients=  1.0000000000D+00
 G 1 1.00
     Exponent=  2.6700000000D+00 Coefficients=  1.0000000000D+00
 G 1 1.00
     Exponent=  9.0960000000D-01 Coefficients=  1.0000000000D+00
 ****
 Ernie: Thresh=  0.10000D-02 Tol=  0.10000D-05 Strict=F.
 There are   562 symmetry adapted cartesian basis functions of A   symmetry.
 There are   498 symmetry adapted basis functions of A   symmetry.
   498 basis functions,   834 primitive gaussians,   562 cartesian basis functions
   115 alpha electrons      115 beta electrons
       nuclear repulsion energy      3871.0412806909 Hartrees.
 IExCor= 1009 DFT=T Ex=PBE Corr=PBE ExCW=0 ScaHFX=  0.000000
 ScaDFX=  1.000000  1.000000  1.000000  1.000000 ScalE2=  1.000000  1.000000
 IRadAn=      0 IRanWt=     -1 IRanGd=            0 ICorTp=0 IEmpDi=  4
 NAtoms=   11 NActive=   11 NUniq=   11 SFac= 1.00D+00 NAtFMM=   60 NAOKFM=F Big=F
 Integral buffers will be    131072 words long.
 Raffenetti 2 integral format.
 Two-electron integral symmetry is turned on.
 ------------------------------------------------------------------------------
 Polarizable Continuum Model (PCM)
 =================================
 Model                : PCM (using non-symmetric T matrix).
 Atomic radii         : UFF (Universal Force Field).
 Polarization charges : Total charges.
 Charge compensation  : None.
 Solution method      : On-the-fly selection.
 Cavity type          : Scaled VdW (van der Waals Surface) (Alpha=1.100).
 Cavity algorithm     : GePol (No added spheres)
                        Default sphere list used, NSphG=   11.
                        Lebedev-Laikov grids with approx.  5.0 points / Ang**2.
                        Smoothing algorithm: Karplus/York (Gamma=1.0000).
                        Polarization charges: spherical gaussians, with
                                              point-specific exponents (IZeta= 3).
                        Self-potential: point-specific (ISelfS= 7).
                        Self-field    : sphere-specific E.n sum rule (ISelfD= 2).
 Solvent              : Water, Eps=  78.355300 Eps(inf)=   1.777849
 ------------------------------------------------------------------------------
 Spheres list:
 ISph  on   Nord     Re0    Alpha      Xe            Ye            Ze
    1  Pt      1    1.3770  1.100     -0.000714      0.291354      0.011206
    2  Br      2    2.0945  1.100     -1.789707     -1.497867     -0.068705
    3   N      3    1.8300  1.100      0.024987      0.388699     -2.116432
    4   O      4    1.7500  1.100     -1.036667      0.380210     -2.718669
    5   O      5    1.7500  1.100      1.100179      0.461803     -2.689537
    6  Br      6    2.0945  1.100      1.798706     -1.488449     -0.044833
    7   N      7    1.8300  1.100     -0.029190      0.220711      2.139967
    8   O      8    1.7500  1.100     -0.082959      1.271806      2.757832
    9   O      9    1.7500  1.100      0.008486     -0.863997      2.698918
   10  Cl     10    1.9735  1.100      1.696211      1.988731      0.111390
   11  Cl     11    1.9735  1.100     -1.704575      1.983683      0.038414
 ------------------------------------------------------------------------------
 GePol: Number of generator spheres                  =      11
 GePol: Total number of spheres                      =      11
 GePol: Number of exposed spheres                    =      10 ( 90.91%)
 GePol: Number of points                             =    1681
 GePol: Average weight of points                     =       0.15
 GePol: Minimum weight of points                     =   0.71D-11
 GePol: Maximum weight of points                     =    0.21616
 GePol: Number of points with low weight             =      38
 GePol: Fraction of low-weight points (<1% of avg)   =       2.26%
 GePol: Cavity surface area                          =    246.057 Ang**2
 GePol: Cavity volume                                =    265.180 Ang**3
 Leave Link  301 at Sat Oct 30 05:01:56 2021, MaxMem=  2013265920 cpu:         0.8
 (Enter /scr/programas/g09/l302.exe)
 NPDir=0 NMtPBC=     1 NCelOv=     1 NCel=       1 NClECP=     1 NCelD=      1
         NCelK=      1 NCelE2=     1 NClLst=     1 CellRange=     0.0.
 One-electron integrals computed using PRISM.
 NBasis=   498 RedAO= T EigKep=  6.98D-05  NBF=   498
 NBsUse=   498 1.00D-06 EigRej= -1.00D+00 NBFU=   498
 Precomputing XC quadrature grid using
 IXCGrd= 4 IRadAn=           0 IRanWt=          -1 IRanGd=           0 AccXCQ= 0.00D+00.
 Defaulting to unpruned grid for atomic number  78.
 Generated NRdTot=       0 NPtTot=           0 NUsed=           0 NTot=          32
 NSgBfM=   516   516   516   516   516 MxSgAt=    11 MxSgA2=    11.
 Leave Link  302 at Sat Oct 30 05:01:57 2021, MaxMem=  2013265920 cpu:         3.2
 (Enter /scr/programas/g09/l308.exe)
 Leave Link  308 at Sat Oct 30 05:01:57 2021, MaxMem=  2013265920 cpu:         0.6
 (Enter /scr/programas/g09/l303.exe)
 DipDrv:  MaxL=1.
 Leave Link  303 at Sat Oct 30 05:01:57 2021, MaxMem=  2013265920 cpu:         0.4
 (Enter /scr/programas/g09/l401.exe)
 ExpMin= 2.28D-02 ExpMax= 2.16D+06 ExpMxC= 2.16D+06 IAcc=4 IRadAn=    199590 AccDes= 0.00D+00
 Harris functional with IExCor= 1009 and IRadAn=  199590 diagonalized for initial guess.
 HarFok:  IExCor= 1009 AccDes= 0.00D+00 IRadAn=    199590 IDoV= 1 UseB2=F ITyADJ=14
 ICtDFT=  3500011 ScaDFX=  1.000000  1.000000  1.000000  1.000000
 FoFCou: FMM=F IPFlag=           0 FMFlag=      100000 FMFlg1=           0
         NFxFlg=           0 DoJE=T BraDBF=F KetDBF=T FulRan=T
         wScrn=  0.000000 ICntrl=     500 IOpCl=  0 I1Cent=   200000004 NGrid=           0
         NMat0=    1 NMatS0=      1 NMatT0=    0 NMatD0=    1 NMtDS0=    0 NMtDT0=    0
 Petite list used in FoFCou.
 Harris En= -23590.5843905346    
 JPrj=0 DoOrth=F DoCkMO=F.
 Leave Link  401 at Sat Oct 30 05:02:16 2021, MaxMem=  2013265920 cpu:        76.6
 (Enter /scr/programas/g09/l502.exe)
 Closed shell SCF:
 Using DIIS extrapolation, IDIIS=  1040.
 Integral symmetry usage will be decided dynamically.
 IVT=      997518 IEndB=      997518 NGot=  2013265920 MDV=  2012625209
 LenX=  2012625209 LenY=  2012308803
 Requested convergence on RMS density matrix=1.00D-08 within 200 cycles.
 Requested convergence on MAX density matrix=1.00D-06.
 Requested convergence on             energy=1.00D-06.
 No special actions if energy rises.
 Fock matrices will be formed incrementally for  20 cycles.

 Cycle   1  Pass 1  IDiag  1:
 FoFJK:  IHMeth= 1 ICntrl=     500 DoSepK=F KAlg= 0 I1Cent=   0 FoldK=F
 IRaf= 770000000 NMat=   1 IRICut=       1 DoRegI=T DoRafI=F ISym2E= 0.
 FoFCou: FMM=F IPFlag=           0 FMFlag=      100000 FMFlg1=           0
         NFxFlg=           0 DoJE=T BraDBF=F KetDBF=F FulRan=T
         wScrn=  0.000000 ICntrl=     500 IOpCl=  0 I1Cent=           0 NGrid=           0
         NMat0=    1 NMatS0=      1 NMatT0=    0 NMatD0=    1 NMtDS0=    0 NMtDT0=    0
 Symmetry not used in FoFCou.
 Defaulting to unpruned grid for atomic number  78.
 Defaulting to unpruned grid for atomic number  78.
 Defaulting to unpruned grid for atomic number  78.
 Defaulting to unpruned grid for atomic number  78.
 Inv3:  Mode=1 IEnd=     8477283.
 Iteration    1 A*A^-1 deviation from unit magnitude is 6.66D-15 for    115.
 Iteration    1 A*A^-1 deviation from orthogonality  is 3.03D-15 for    734    205.
 Iteration    1 A^-1*A deviation from unit magnitude is 6.11D-15 for    425.
 Iteration    1 A^-1*A deviation from orthogonality  is 3.49D-14 for    747    735.
 E= -23571.4015861321    
 DIIS: error= 4.62D-01 at cycle   1 NSaved=   1.
 NSaved= 1 IEnMin= 1 EnMin= -23571.4015861321     IErMin= 1 ErrMin= 4.62D-01
 ErrMax= 4.62D-01  0.00D+00 EMaxC= 1.00D-01 BMatC= 3.21D+02 BMatP= 3.21D+02
 IDIUse=3 WtCom= 0.00D+00 WtEn= 1.00D+00
 Coeff-Com:  0.100D+01
 Coeff-En:   0.100D+01
 Coeff:      0.100D+01
 Gap=     0.796 Goal=   None    Shift=    0.000
 GapD=    0.796 DampG=2.000 DampE=0.125 DampFc=0.2500 IDamp=-1.
 Damping current iteration by 2.50D-01
 RMSDP=1.74D-02 MaxDP=1.74D+00              OVMax= 8.58D-01

 Cycle   2  Pass 1  IDiag  1:
 RMSU=  4.31D-03    CP:  1.02D+00
 E= -23572.8416008669     Delta-E=       -1.440014734744 Rises=F Damp=T
 DIIS: error= 3.31D-01 at cycle   2 NSaved=   2.
 NSaved= 2 IEnMin= 2 EnMin= -23572.8416008669     IErMin= 2 ErrMin= 3.31D-01
 ErrMax= 3.31D-01  0.00D+00 EMaxC= 1.00D-01 BMatC= 1.53D+02 BMatP= 3.21D+02
 IDIUse=3 WtCom= 0.00D+00 WtEn= 1.00D+00
 Coeff-Com: -0.183D+01 0.283D+01
 Coeff-En:   0.270D+00 0.730D+00
 Coeff:      0.270D+00 0.730D+00
 Gap=    -0.379 Goal=   None    Shift=    0.000
 RMSDP=5.03D-03 MaxDP=3.44D-01 DE=-1.44D+00 OVMax= 9.94D-01

 Cycle   3  Pass 1  IDiag  1:
 RMSU=  4.75D-03    CP:  1.03D+00  6.12D-01
 E= -23573.0218590114     Delta-E=       -0.180258144515 Rises=F Damp=F
 DIIS: error= 1.28D-01 at cycle   3 NSaved=   3.
 NSaved= 3 IEnMin= 3 EnMin= -23573.0218590114     IErMin= 3 ErrMin= 1.28D-01
 ErrMax= 1.28D-01  0.00D+00 EMaxC= 1.00D-01 BMatC= 1.93D+01 BMatP= 1.53D+02
 IDIUse=3 WtCom= 0.00D+00 WtEn= 1.00D+00
 EnCoef did   100 forward-backward iterations
 Coeff-Com:  0.587D+00-0.602D+00 0.101D+01
 Coeff-En:   0.429D+00 0.105D-01 0.560D+00
 Coeff:      0.429D+00 0.105D-01 0.560D+00
 Gap=     0.052 Goal=   None    Shift=    0.000
 RMSDP=7.19D-03 MaxDP=4.89D-01 DE=-1.80D-01 OVMax= 8.08D-01

 Cycle   4  Pass 1  IDiag  1:
 RMSU=  6.21D-03    CP:  1.01D+00  4.46D-01  2.54D-01
 E= -23575.0518879751     Delta-E=       -2.030028963734 Rises=F Damp=F
 DIIS: error= 6.14D-02 at cycle   4 NSaved=   4.
 NSaved= 4 IEnMin= 4 EnMin= -23575.0518879751     IErMin= 4 ErrMin= 6.14D-02
 ErrMax= 6.14D-02  0.00D+00 EMaxC= 1.00D-01 BMatC= 2.64D+00 BMatP= 1.93D+01
 IDIUse=3 WtCom= 3.86D-01 WtEn= 6.14D-01
 EnCoef did     5 forward-backward iterations
 Coeff-Com:  0.440D+00-0.531D+00 0.350D+00 0.741D+00
 Coeff-En:   0.219D+00 0.000D+00 0.325D+00 0.456D+00
 Coeff:      0.304D+00-0.205D+00 0.335D+00 0.566D+00
 Gap=     0.042 Goal=   None    Shift=    0.000
 RMSDP=6.97D-03 MaxDP=4.96D-01 DE=-2.03D+00 OVMax= 8.89D-01

 Cycle   5  Pass 1  IDiag  1:
 RMSU=  2.44D-03    CP:  1.00D+00  2.08D-01  3.58D-01 -3.42D-02
 E= -23574.5256355014     Delta-E=        0.526252473737 Rises=F Damp=F
 DIIS: error= 5.17D-02 at cycle   5 NSaved=   5.
 NSaved= 5 IEnMin= 4 EnMin= -23575.0518879751     IErMin= 5 ErrMin= 5.17D-02
 ErrMax= 5.17D-02  0.00D+00 EMaxC= 1.00D-01 BMatC= 3.42D+00 BMatP= 2.64D+00
 IDIUse=2 WtCom= 0.00D+00 WtEn= 1.00D+00
 EnCoef did     2 forward-backward iterations
 Coeff-En:   0.000D+00 0.000D+00 0.149D+00 0.450D+00 0.401D+00
 Coeff:      0.000D+00 0.000D+00 0.149D+00 0.450D+00 0.401D+00
 Gap=     0.085 Goal=   None    Shift=    0.000
 RMSDP=2.86D-03 MaxDP=1.49D-01 DE= 5.26D-01 OVMax= 5.21D-01

 Cycle   6  Pass 1  IDiag  1:
 RMSU=  1.80D-03    CP:  1.01D+00  3.64D-01  5.33D-01  8.56D-02  2.65D-01
 E= -23576.8223951704     Delta-E=       -2.296759669036 Rises=F Damp=F
 DIIS: error= 3.28D-02 at cycle   6 NSaved=   6.
 NSaved= 6 IEnMin= 6 EnMin= -23576.8223951704     IErMin= 6 ErrMin= 3.28D-02
 ErrMax= 3.28D-02  0.00D+00 EMaxC= 1.00D-01 BMatC= 6.49D-01 BMatP= 2.64D+00
 IDIUse=3 WtCom= 6.72D-01 WtEn= 3.28D-01
 EnCoef did     4 forward-backward iterations
 Coeff-Com: -0.839D-01 0.122D+00-0.243D-01 0.253D+00 0.256D+00 0.477D+00
 Coeff-En:   0.000D+00 0.000D+00 0.000D+00 0.170D+00 0.178D+00 0.652D+00
 Coeff:     -0.564D-01 0.822D-01-0.164D-01 0.226D+00 0.230D+00 0.535D+00
 Gap=     0.071 Goal=   None    Shift=    0.000
 RMSDP=1.75D-03 MaxDP=1.08D-01 DE=-2.30D+00 OVMax= 2.98D-01

 Cycle   7  Pass 1  IDiag  1:
 RMSU=  1.23D-03    CP:  1.01D+00  2.42D-01  4.03D-01  8.29D-02  3.47D-01
                    CP:  4.87D-01
 E= -23577.0371813637     Delta-E=       -0.214786193337 Rises=F Damp=F
 DIIS: error= 2.17D-02 at cycle   7 NSaved=   7.
 NSaved= 7 IEnMin= 7 EnMin= -23577.0371813637     IErMin= 7 ErrMin= 2.17D-02
 ErrMax= 2.17D-02  0.00D+00 EMaxC= 1.00D-01 BMatC= 3.36D-01 BMatP= 6.49D-01
 IDIUse=3 WtCom= 7.83D-01 WtEn= 2.17D-01
 Coeff-Com: -0.491D-01 0.657D-01-0.152D-01 0.623D-01 0.158D-01 0.392D+00
 Coeff-Com:  0.529D+00
 Coeff-En:   0.000D+00 0.000D+00 0.000D+00 0.000D+00 0.000D+00 0.396D+00
 Coeff-En:   0.604D+00
 Coeff:     -0.384D-01 0.514D-01-0.119D-01 0.488D-01 0.124D-01 0.393D+00
 Coeff:      0.545D+00
 Gap=     0.156 Goal=   None    Shift=    0.000
 RMSDP=1.02D-03 MaxDP=5.68D-02 DE=-2.15D-01 OVMax= 2.03D-01

 Cycle   8  Pass 1  IDiag  1:
 RMSU=  4.34D-04    CP:  1.01D+00  3.04D-01  4.49D-01  1.03D-01  3.00D-01
                    CP:  8.11D-01  5.13D-01
 E= -23577.2813847784     Delta-E=       -0.244203414648 Rises=F Damp=F
 DIIS: error= 6.59D-03 at cycle   8 NSaved=   8.
 NSaved= 8 IEnMin= 8 EnMin= -23577.2813847784     IErMin= 8 ErrMin= 6.59D-03
 ErrMax= 6.59D-03  0.00D+00 EMaxC= 1.00D-01 BMatC= 1.71D-02 BMatP= 3.36D-01
 IDIUse=3 WtCom= 9.34D-01 WtEn= 6.59D-02
 Coeff-Com: -0.279D-01 0.369D-01-0.861D-02 0.251D-01-0.221D-02 0.224D+00
 Coeff-Com:  0.339D+00 0.414D+00
 Coeff-En:   0.000D+00 0.000D+00 0.000D+00 0.000D+00 0.000D+00 0.000D+00
 Coeff-En:   0.000D+00 0.100D+01
 Coeff:     -0.261D-01 0.345D-01-0.804D-02 0.234D-01-0.206D-02 0.209D+00
 Coeff:      0.317D+00 0.452D+00
 Gap=     0.056 Goal=   None    Shift=    0.000
 RMSDP=5.62D-04 MaxDP=2.81D-02 DE=-2.44D-01 OVMax= 1.86D-01

 Cycle   9  Pass 1  IDiag  1:
 RMSU=  3.49D-04    CP:  1.01D+00  2.96D-01  4.51D-01  9.95D-02  3.04D-01
                    CP:  7.53D-01  6.83D-01  1.47D-01
 E= -23577.2794808940     Delta-E=        0.001903884418 Rises=F Damp=F
 DIIS: error= 6.56D-03 at cycle   9 NSaved=   9.
 NSaved= 9 IEnMin= 8 EnMin= -23577.2813847784     IErMin= 9 ErrMin= 6.56D-03
 ErrMax= 6.56D-03  0.00D+00 EMaxC= 1.00D-01 BMatC= 1.81D-02 BMatP= 1.71D-02
 IDIUse=3 WtCom= 9.34D-01 WtEn= 6.56D-02
 Coeff-Com: -0.882D-02 0.120D-01-0.291D-02 0.597D-02-0.514D-02 0.421D-01
 Coeff-Com:  0.675D-01 0.462D+00 0.427D+00
 Coeff-En:   0.000D+00 0.000D+00 0.000D+00 0.000D+00 0.000D+00 0.000D+00
 Coeff-En:   0.000D+00 0.519D+00 0.481D+00
 Coeff:     -0.824D-02 0.112D-01-0.272D-02 0.558D-02-0.481D-02 0.393D-01
 Coeff:      0.631D-01 0.466D+00 0.431D+00
 Gap=     0.053 Goal=   None    Shift=    0.000
 RMSDP=3.19D-04 MaxDP=1.61D-02 DE= 1.90D-03 OVMax= 1.09D-01

 Cycle  10  Pass 1  IDiag  1:
 RMSU=  8.88D-05    CP:  1.01D+00  3.00D-01  4.53D-01  1.04D-01  2.99D-01
                    CP:  7.91D-01  6.13D-01  5.94D-01  4.05D-01
 E= -23577.2964758535     Delta-E=       -0.016994959577 Rises=F Damp=F
 DIIS: error= 9.83D-04 at cycle  10 NSaved=  10.
 NSaved=10 IEnMin=10 EnMin= -23577.2964758535     IErMin=10 ErrMin= 9.83D-04
 ErrMax= 9.83D-04  0.00D+00 EMaxC= 1.00D-01 BMatC= 7.64D-04 BMatP= 1.71D-02
 IDIUse=3 WtCom= 9.90D-01 WtEn= 9.83D-03
 Coeff-Com:  0.179D-03-0.146D-03-0.393D-03 0.383D-02-0.290D-02 0.684D-02
 Coeff-Com:  0.724D-02 0.259D+00 0.274D+00 0.452D+00
 Coeff-En:   0.000D+00 0.000D+00 0.000D+00 0.000D+00 0.000D+00 0.000D+00
 Coeff-En:   0.000D+00 0.000D+00 0.000D+00 0.100D+01
 Coeff:      0.177D-03-0.145D-03-0.389D-03 0.379D-02-0.287D-02 0.677D-02
 Coeff:      0.717D-02 0.257D+00 0.271D+00 0.458D+00
 Gap=     0.051 Goal=   None    Shift=    0.000
 RMSDP=6.35D-05 MaxDP=2.83D-03 DE=-1.70D-02 OVMax= 1.27D-02

 Cycle  11  Pass 1  IDiag  1:
 RMSU=  3.39D-05    CP:  1.01D+00  3.00D-01  4.49D-01  1.05D-01  2.97D-01
                    CP:  7.89D-01  6.18D-01  5.92D-01  4.97D-01  5.75D-01
 E= -23577.2969640773     Delta-E=       -0.000488223788 Rises=F Damp=F
 DIIS: error= 2.66D-04 at cycle  11 NSaved=  11.
 NSaved=11 IEnMin=11 EnMin= -23577.2969640773     IErMin=11 ErrMin= 2.66D-04
 ErrMax= 2.66D-04  0.00D+00 EMaxC= 1.00D-01 BMatC= 8.74D-05 BMatP= 7.64D-04
 IDIUse=3 WtCom= 9.97D-01 WtEn= 2.66D-03
 Coeff-Com:  0.526D-03-0.671D-03-0.184D-03 0.176D-02-0.581D-03 0.938D-03
 Coeff-Com: -0.507D-02 0.965D-01 0.113D+00 0.289D+00 0.505D+00
 Coeff-En:   0.000D+00 0.000D+00 0.000D+00 0.000D+00 0.000D+00 0.000D+00
 Coeff-En:   0.000D+00 0.000D+00 0.000D+00 0.125D+00 0.875D+00
 Coeff:      0.524D-03-0.669D-03-0.183D-03 0.176D-02-0.580D-03 0.935D-03
 Coeff:     -0.505D-02 0.962D-01 0.113D+00 0.288D+00 0.506D+00
 Gap=     0.051 Goal=   None    Shift=    0.000
 RMSDP=2.79D-05 MaxDP=1.05D-03 DE=-4.88D-04 OVMax= 5.38D-03

 Cycle  12  Pass 1  IDiag  1:
 RMSU=  1.28D-05    CP:  1.01D+00  3.01D-01  4.50D-01  1.05D-01  2.97D-01
                    CP:  7.93D-01  6.09D-01  6.04D-01  4.84D-01  6.68D-01
                    CP:  5.12D-01
 E= -23577.2970233155     Delta-E=       -0.000059238148 Rises=F Damp=F
 DIIS: error= 1.35D-04 at cycle  12 NSaved=  12.
 NSaved=12 IEnMin=12 EnMin= -23577.2970233155     IErMin=12 ErrMin= 1.35D-04
 ErrMax= 1.35D-04  0.00D+00 EMaxC= 1.00D-01 BMatC= 2.14D-05 BMatP= 8.74D-05
 IDIUse=3 WtCom= 9.99D-01 WtEn= 1.35D-03
 Coeff-Com:  0.417D-04-0.484D-04-0.830D-04 0.487D-03-0.234D-04 0.412D-03
 Coeff-Com: -0.366D-02 0.194D-01 0.298D-01 0.115D+00 0.379D+00 0.459D+00
 Coeff-En:   0.000D+00 0.000D+00 0.000D+00 0.000D+00 0.000D+00 0.000D+00
 Coeff-En:   0.000D+00 0.000D+00 0.000D+00 0.000D+00 0.222D+00 0.778D+00
 Coeff:      0.416D-04-0.483D-04-0.828D-04 0.486D-03-0.233D-04 0.412D-03
 Coeff:     -0.366D-02 0.194D-01 0.298D-01 0.115D+00 0.379D+00 0.459D+00
 Gap=     0.051 Goal=   None    Shift=    0.000
 RMSDP=9.95D-06 MaxDP=4.63D-04 DE=-5.92D-05 OVMax= 2.18D-03

 Cycle  13  Pass 1  IDiag  1:
 RMSU=  5.24D-06    CP:  1.01D+00  3.01D-01  4.50D-01  1.05D-01  2.97D-01
                    CP:  7.93D-01  6.10D-01  5.97D-01  4.93D-01  6.47D-01
                    CP:  6.35D-01  6.26D-01
 E= -23577.2970362983     Delta-E=       -0.000012982779 Rises=F Damp=F
 DIIS: error= 9.21D-05 at cycle  13 NSaved=  13.
 NSaved=13 IEnMin=13 EnMin= -23577.2970362983     IErMin=13 ErrMin= 9.21D-05
 ErrMax= 9.21D-05  0.00D+00 EMaxC= 1.00D-01 BMatC= 7.32D-06 BMatP= 2.14D-05
 IDIUse=1 WtCom= 1.00D+00 WtEn= 0.00D+00
 Coeff-Com: -0.256D-04 0.373D-04-0.371D-04 0.205D-03 0.582D-04 0.263D-03
 Coeff-Com: -0.232D-02 0.560D-02 0.118D-01 0.615D-01 0.257D+00 0.390D+00
 Coeff-Com:  0.276D+00
 Coeff:     -0.256D-04 0.373D-04-0.371D-04 0.205D-03 0.582D-04 0.263D-03
 Coeff:     -0.232D-02 0.560D-02 0.118D-01 0.615D-01 0.257D+00 0.390D+00
 Coeff:      0.276D+00
 Gap=     0.051 Goal=   None    Shift=    0.000
 RMSDP=4.37D-06 MaxDP=2.54D-04 DE=-1.30D-05 OVMax= 9.94D-04

 Cycle  14  Pass 1  IDiag  1:
 RMSU=  1.92D-06    CP:  1.01D+00  3.01D-01  4.50D-01  1.05D-01  2.97D-01
                    CP:  7.92D-01  6.11D-01  5.96D-01  4.94D-01  6.50D-01
                    CP:  6.70D-01  6.27D-01  3.39D-01
 E= -23577.2970414647     Delta-E=       -0.000005166421 Rises=F Damp=F
 DIIS: error= 2.61D-05 at cycle  14 NSaved=  14.
 NSaved=14 IEnMin=14 EnMin= -23577.2970414647     IErMin=14 ErrMin= 2.61D-05
 ErrMax= 2.61D-05  0.00D+00 EMaxC= 1.00D-01 BMatC= 6.39D-07 BMatP= 7.32D-06
 IDIUse=1 WtCom= 1.00D+00 WtEn= 0.00D+00
 Coeff-Com:  0.464D-04-0.624D-04 0.202D-04 0.595D-04 0.270D-05 0.105D-03
 Coeff-Com: -0.680D-03 0.488D-03 0.165D-02 0.177D-01 0.937D-01 0.185D+00
 Coeff-Com:  0.218D+00 0.483D+00
 Coeff:      0.464D-04-0.624D-04 0.202D-04 0.595D-04 0.270D-05 0.105D-03
 Coeff:     -0.680D-03 0.488D-03 0.165D-02 0.177D-01 0.937D-01 0.185D+00
 Coeff:      0.218D+00 0.483D+00
 Gap=     0.051 Goal=   None    Shift=    0.000
 RMSDP=1.86D-06 MaxDP=7.21D-05 DE=-5.17D-06 OVMax= 4.41D-04

 Cycle  15  Pass 1  IDiag  1:
 RMSU=  7.10D-07    CP:  1.01D+00  3.00D-01  4.50D-01  1.05D-01  2.97D-01
                    CP:  7.92D-01  6.11D-01  5.97D-01  4.91D-01  6.58D-01
                    CP:  6.72D-01  6.29D-01  3.85D-01  5.39D-01
 E= -23577.2970419775     Delta-E=       -0.000000512871 Rises=F Damp=F
 DIIS: error= 7.47D-06 at cycle  15 NSaved=  15.
 NSaved=15 IEnMin=15 EnMin= -23577.2970419775     IErMin=15 ErrMin= 7.47D-06
 ErrMax= 7.47D-06  0.00D+00 EMaxC= 1.00D-01 BMatC= 4.81D-08 BMatP= 6.39D-07
 IDIUse=1 WtCom= 1.00D+00 WtEn= 0.00D+00
 Coeff-Com: -0.621D-06 0.871D-06 0.596D-05 0.921D-05 0.657D-05 0.662D-04
 Coeff-Com: -0.195D-03-0.948D-05 0.174D-03 0.625D-02 0.322D-01 0.753D-01
 Coeff-Com:  0.106D+00 0.291D+00 0.490D+00
 Coeff:     -0.621D-06 0.871D-06 0.596D-05 0.921D-05 0.657D-05 0.662D-04
 Coeff:     -0.195D-03-0.948D-05 0.174D-03 0.625D-02 0.322D-01 0.753D-01
 Coeff:      0.106D+00 0.291D+00 0.490D+00
 Gap=     0.051 Goal=   None    Shift=    0.000
 RMSDP=6.66D-07 MaxDP=2.21D-05 DE=-5.13D-07 OVMax= 1.02D-04

 Cycle  16  Pass 1  IDiag  1:
 RMSU=  2.29D-07    CP:  1.01D+00  3.00D-01  4.50D-01  1.05D-01  2.97D-01
                    CP:  7.92D-01  6.11D-01  5.97D-01  4.91D-01  6.57D-01
                    CP:  6.63D-01  6.38D-01  4.03D-01  5.76D-01  6.05D-01
 E= -23577.2970420182     Delta-E=       -0.000000040625 Rises=F Damp=F
 DIIS: error= 2.32D-06 at cycle  16 NSaved=  16.
 NSaved=16 IEnMin=16 EnMin= -23577.2970420182     IErMin=16 ErrMin= 2.32D-06
 ErrMax= 2.32D-06  0.00D+00 EMaxC= 1.00D-01 BMatC= 7.31D-09 BMatP= 4.81D-08
 IDIUse=1 WtCom= 1.00D+00 WtEn= 0.00D+00
 Coeff-Com: -0.702D-05 0.949D-05 0.141D-05 0.595D-06 0.700D-05 0.364D-04
 Coeff-Com: -0.851D-04 0.133D-04 0.281D-04 0.302D-02 0.150D-01 0.381D-01
 Coeff-Com:  0.568D-01 0.167D+00 0.355D+00 0.365D+00
 Coeff:     -0.702D-05 0.949D-05 0.141D-05 0.595D-06 0.700D-05 0.364D-04
 Coeff:     -0.851D-04 0.133D-04 0.281D-04 0.302D-02 0.150D-01 0.381D-01
 Coeff:      0.568D-01 0.167D+00 0.355D+00 0.365D+00
 Gap=     0.051 Goal=   None    Shift=    0.000
 RMSDP=1.83D-07 MaxDP=9.38D-06 DE=-4.06D-08 OVMax= 3.26D-05

 Cycle  17  Pass 1  IDiag  1:
 RMSU=  1.06D-07    CP:  1.01D+00  3.00D-01  4.50D-01  1.05D-01  2.97D-01
                    CP:  7.92D-01  6.11D-01  5.97D-01  4.91D-01  6.56D-01
                    CP:  6.63D-01  6.37D-01  4.04D-01  5.89D-01  6.20D-01
                    CP:  5.32D-01
 E= -23577.2970420231     Delta-E=       -0.000000004962 Rises=F Damp=F
 DIIS: error= 1.84D-06 at cycle  17 NSaved=  17.
 NSaved=17 IEnMin=17 EnMin= -23577.2970420231     IErMin=17 ErrMin= 1.84D-06
 ErrMax= 1.84D-06  0.00D+00 EMaxC= 1.00D-01 BMatC= 2.36D-09 BMatP= 7.31D-09
 IDIUse=1 WtCom= 1.00D+00 WtEn= 0.00D+00
 Coeff-Com: -0.376D-05 0.506D-05 0.407D-06-0.138D-05 0.415D-05 0.143D-04
 Coeff-Com: -0.355D-04 0.244D-04-0.670D-05 0.130D-02 0.635D-02 0.176D-01
 Coeff-Com:  0.274D-01 0.854D-01 0.205D+00 0.311D+00 0.347D+00
 Coeff:     -0.376D-05 0.506D-05 0.407D-06-0.138D-05 0.415D-05 0.143D-04
 Coeff:     -0.355D-04 0.244D-04-0.670D-05 0.130D-02 0.635D-02 0.176D-01
 Coeff:      0.274D-01 0.854D-01 0.205D+00 0.311D+00 0.347D+00
 Gap=     0.051 Goal=   None    Shift=    0.000
 RMSDP=8.09D-08 MaxDP=4.86D-06 DE=-4.96D-09 OVMax= 1.92D-05

 Cycle  18  Pass 1  IDiag  1:
 RMSU=  4.89D-08    CP:  1.01D+00  3.00D-01  4.50D-01  1.05D-01  2.97D-01
                    CP:  7.92D-01  6.11D-01  5.97D-01  4.91D-01  6.56D-01
                    CP:  6.64D-01  6.37D-01  4.04D-01  5.92D-01  6.31D-01
                    CP:  5.86D-01  4.85D-01
 E= -23577.2970420229     Delta-E=        0.000000000236 Rises=F Damp=F
 DIIS: error= 6.61D-07 at cycle  18 NSaved=  18.
 NSaved=18 IEnMin=17 EnMin= -23577.2970420231     IErMin=18 ErrMin= 6.61D-07
 ErrMax= 6.61D-07  0.00D+00 EMaxC= 1.00D-01 BMatC= 4.54D-10 BMatP= 2.36D-09
 IDIUse=1 WtCom= 1.00D+00 WtEn= 0.00D+00
 Coeff-Com: -0.105D-05 0.141D-05 0.841D-07-0.125D-05 0.209D-05 0.194D-05
 Coeff-Com: -0.122D-04 0.384D-04 0.128D-04 0.434D-03 0.193D-02 0.592D-02
 Coeff-Com:  0.100D-01 0.344D-01 0.909D-01 0.173D+00 0.295D+00 0.389D+00
 Coeff:     -0.105D-05 0.141D-05 0.841D-07-0.125D-05 0.209D-05 0.194D-05
 Coeff:     -0.122D-04 0.384D-04 0.128D-04 0.434D-03 0.193D-02 0.592D-02
 Coeff:      0.100D-01 0.344D-01 0.909D-01 0.173D+00 0.295D+00 0.389D+00
 Gap=     0.051 Goal=   None    Shift=    0.000
 RMSDP=3.91D-08 MaxDP=1.71D-06 DE= 2.36D-10 OVMax= 5.76D-06

 Cycle  19  Pass 1  IDiag  1:
 RMSU=  1.51D-08    CP:  1.01D+00  3.00D-01  4.50D-01  1.05D-01  2.97D-01
                    CP:  7.92D-01  6.11D-01  5.97D-01  4.91D-01  6.56D-01
                    CP:  6.64D-01  6.37D-01  4.04D-01  5.91D-01  6.33D-01
                    CP:  5.97D-01  5.66D-01  4.78D-01
 E= -23577.2970420236     Delta-E=       -0.000000000651 Rises=F Damp=F
 DIIS: error= 1.63D-07 at cycle  19 NSaved=  19.
 NSaved=19 IEnMin=19 EnMin= -23577.2970420236     IErMin=19 ErrMin= 1.63D-07
 ErrMax= 1.63D-07  0.00D+00 EMaxC= 1.00D-01 BMatC= 2.82D-11 BMatP= 4.54D-10
 IDIUse=1 WtCom= 1.00D+00 WtEn= 0.00D+00
 Coeff-Com: -0.152D-06 0.205D-06 0.155D-06-0.684D-06 0.189D-06-0.106D-06
 Coeff-Com: -0.624D-07 0.785D-05 0.430D-05 0.397D-04 0.193D-03 0.593D-03
 Coeff-Com:  0.129D-02 0.548D-02 0.144D-01 0.410D-01 0.106D+00 0.229D+00
 Coeff-Com:  0.601D+00
 Coeff:     -0.152D-06 0.205D-06 0.155D-06-0.684D-06 0.189D-06-0.106D-06
 Coeff:     -0.624D-07 0.785D-05 0.430D-05 0.397D-04 0.193D-03 0.593D-03
 Coeff:      0.129D-02 0.548D-02 0.144D-01 0.410D-01 0.106D+00 0.229D+00
 Coeff:      0.601D+00
 Gap=     0.051 Goal=   None    Shift=    0.000
 RMSDP=9.15D-09 MaxDP=5.56D-07 DE=-6.51D-10 OVMax= 1.32D-06

 Error on total polarization charges =  0.03073
 SCF Done:  E(RPBE-PBE) =  -23577.2970420     A.U. after   19 cycles
            NFock= 19  Conv=0.91D-08     -V/T= 2.0139
 KE= 2.325388554716D+04 PE=-6.374008396229D+04 EE= 1.303786009242D+04
 Leave Link  502 at Sat Oct 30 05:12:57 2021, MaxMem=  2013265920 cpu:      2551.6
 (Enter /scr/programas/g09/l801.exe)
 Range of M.O.s used for correlation:     1   498
 NBasis=   498 NAE=   115 NBE=   115 NFC=     0 NFV=     0
 NROrb=    498 NOA=   115 NOB=   115 NVA=   383 NVB=   383

 **** Warning!!: The largest alpha MO coefficient is  0.26429245D+02


 **** Warning!!: The smallest alpha delta epsilon is  0.50729258D-01

 Leave Link  801 at Sat Oct 30 05:12:57 2021, MaxMem=  2013265920 cpu:         0.1
 (Enter /scr/programas/g09/l1002.exe)
 Minotr:  Closed shell wavefunction.
 NEqPCM:  Using equilibrium solvation (IEInf=0, Eps=  78.3553, EpsInf=   1.7778)
          Direct CPHF calculation.
          Differentiating once with respect to magnetic field using GIAOs.
          Electric field/nuclear overlap derivatives assumed to be zero.
          Requested convergence is 1.0D-08 RMS, and 1.0D-07 maximum.
          Secondary convergence is 1.0D-12 RMS, and 1.0D-12 maximum.
          NewPWx=T KeepS1=F KeepF1=F KeepIn=T MapXYZ=F SortEE=F KeepMc=T.
          MDV=    2013265330 using IRadAn=       2.
 Defaulting to unpruned grid for atomic number  78.
 Generate precomputed XC quadrature information.
          Solving linear equations simultaneously, MaxMat=       0.
 FoFJK:  IHMeth= 1 ICntrl=    6127 DoSepK=F KAlg= 0 I1Cent=   0 FoldK=F
 IRaf=         1 NMat=   1 IRICut=       1 DoRegI=T DoRafI=F ISym2E= 0.
 Defaulting to unpruned grid for atomic number  78.
 Defaulting to unpruned grid for atomic number  78.
 Defaulting to unpruned grid for atomic number  78.
 Defaulting to unpruned grid for atomic number  78.
          There are     3 degrees of freedom in the 1st order CPHF.  IDoFFX=0 NUNeed=     3.
      3 vectors produced by pass  0 Test12= 1.47D-12 3.33D-08 XBig12= 4.12D+01 2.32D+00.
 AX will form     3 AO Fock derivatives at one time.
 InvSVY:  IOpt=1 It=  1 EMax= 0.00D+00
 Solved reduced A of dimension     3 with     3 vectors.
 Calculating GIAO nuclear magnetic shielding tensors.
 SCF GIAO Magnetic shielding tensor (ppm):
      1  Pt   Isotropic =  -462.4394   Anisotropy =  1493.2317
   XX=  -964.5014   YX=    17.3288   ZX=   -12.1591
   XY=   -13.5670   YY=  -948.0921   ZY=   -86.6202
   XZ=   -14.6700   YZ=  -126.2775   ZZ=   525.2754
   Eigenvalues:  -964.7166  -955.6499   533.0484
      2  Br   Isotropic =  1617.2830   Anisotropy =  2042.0129
   XX=  1712.3795   YX=  1293.3868   ZX=   344.5794
   XY=  1238.2636   YY=  1710.2718   ZY=  -300.6593
   XZ=   241.9268   YZ=  -153.4756   ZZ=  1429.1977
   Eigenvalues:   323.0449  1550.1792  2978.6249
      3  N    Isotropic =  -203.2427   Anisotropy =   314.2575
   XX=  -384.5552   YX=   -14.8955   ZX=    -2.6294
   XY=   -12.8626   YY=     5.1306   ZY=    12.4698
   XZ=    -2.3636   YZ=    11.9369   ZZ=  -230.3037
   Eigenvalues:  -385.0764  -230.9141     6.2623
      4  O    Isotropic =  -412.4562   Anisotropy =   498.9697
   XX=  -752.2900   YX=   -29.1016   ZX=    75.9344
   XY=   -19.8122   YY=   -81.0523   ZY=    14.8751
   XZ=  -107.2218   YZ=     5.3726   ZZ=  -404.0265
   Eigenvalues:  -753.8464  -403.7126   -79.8098
      5  O    Isotropic =  -412.1856   Anisotropy =   499.8643
   XX=  -752.9547   YX=   -27.9018   ZX=   -87.0865
   XY=   -31.7146   YY=   -80.6109   ZY=     8.3373
   XZ=    96.2563   YZ=    13.3646   ZZ=  -402.9912
   Eigenvalues:  -754.3465  -403.2676   -78.9427
      6  Br   Isotropic =  1614.6932   Anisotropy =  2045.0160
   XX=  1738.8464   YX= -1299.0727   ZX=  -359.1039
   XY= -1226.1198   YY=  1690.1289   ZY=  -307.0783
   XZ=  -226.8668   YZ=  -196.4228   ZZ=  1415.1042
   Eigenvalues:   316.7354  1549.3069  2978.0371
      7  N    Isotropic =  -203.0022   Anisotropy =   314.3890
   XX=     5.9228   YX=    14.5833   ZX=     3.6637
   XY=    16.4117   YY=  -384.0570   ZY=    -2.8310
   XZ=     3.5510   YZ=    -0.4508   ZZ=  -230.8724
   Eigenvalues:  -384.6925  -230.9045     6.5904
      8  O    Isotropic =  -407.8321   Anisotropy =   499.7107
   XX=   -76.0847   YX=    29.7501   ZX=     1.5073
   XY=    29.6914   YY=  -743.4178   ZY=    73.8225
   XZ=     9.8159   YZ=  -109.3745   ZZ=  -403.9937
   Eigenvalues:  -745.6882  -403.1164   -74.6916
      9  O    Isotropic =  -416.5626   Anisotropy =   500.1340
   XX=   -84.5255   YX=    27.5010   ZX=     8.6005
   XY=    32.2814   YY=  -761.7858   ZY=   -88.8107
   XZ=     0.6363   YZ=    92.4939   ZZ=  -403.3764
   Eigenvalues:  -763.1100  -403.4378   -83.1399
     10  Cl   Isotropic =   590.9736   Anisotropy =   741.3845
   XX=   608.7944   YX=   459.5389   ZX=  -113.4919
   XY=   493.1765   YY=   607.4230   ZY=   144.7701
   XZ=   -58.0729   YZ=    82.7504   ZZ=   556.7035
   Eigenvalues:    89.1280   598.5629  1085.2299
     11  Cl   Isotropic =   588.8631   Anisotropy =   744.6244
   XX=   604.0725   YX=  -468.6527   ZX=   126.3359
   XY=  -494.9995   YY=   602.6868   ZY=   124.2026
   XZ=    55.3231   YZ=    74.9465   ZZ=   559.8302
   Eigenvalues:    83.4929   597.8171  1085.2794
 End of Minotr F.D. properties file   721 does not exist.
 End of Minotr F.D. properties file   722 does not exist.
 End of Minotr F.D. properties file   788 does not exist.
 Leave Link 1002 at Sat Oct 30 05:20:39 2021, MaxMem=  2013265920 cpu:      1834.4
 (Enter /scr/programas/g09/l601.exe)
 Copying SCF densities to generalized density rwf, IOpCl= 0 IROHF=0.

 **********************************************************************

            Population analysis using the SCF density.

 **********************************************************************

 Orbital symmetries:
       Occupied  (A) (A) (A) (A) (A) (A) (A) (A) (A) (A) (A) (A)
                 (A) (A) (A) (A) (A) (A) (A) (A) (A) (A) (A) (A)
                 (A) (A) (A) (A) (A) (A) (A) (A) (A) (A) (A) (A)
                 (A) (A) (A) (A) (A) (A) (A) (A) (A) (A) (A) (A)
                 (A) (A) (A) (A) (A) (A) (A) (A) (A) (A) (A) (A)
                 (A) (A) (A) (A) (A) (A) (A) (A) (A) (A) (A) (A)
                 (A) (A) (A) (A) (A) (A) (A) (A) (A) (A) (A) (A)
                 (A) (A) (A) (A) (A) (A) (A) (A) (A) (A) (A) (A)
                 (A) (A) (A) (A) (A) (A) (A) (A) (A) (A) (A) (A)
                 (A) (A) (A) (A) (A) (A) (A)
       Virtual   (A) (A) (A) (A) (A) (A) (A) (A) (A) (A) (A) (A)
                 (A) (A) (A) (A) (A) (A) (A) (A) (A) (A) (A) (A)
                 (A) (A) (A) (A) (A) (A) (A) (A) (A) (A) (A) (A)
                 (A) (A) (A) (A) (A) (A) (A) (A) (A) (A) (A) (A)
                 (A) (A) (A) (A) (A) (A) (A) (A) (A) (A) (A) (A)
                 (A) (A) (A) (A) (A) (A) (A) (A) (A) (A) (A) (A)
                 (A) (A) (A) (A) (A) (A) (A) (A) (A) (A) (A) (A)
                 (A) (A) (A) (A) (A) (A) (A) (A) (A) (A) (A) (A)
                 (A) (A) (A) (A) (A) (A) (A) (A) (A) (A) (A) (A)
                 (A) (A) (A) (A) (A) (A) (A) (A) (A) (A) (A) (A)
                 (A) (A) (A) (A) (A) (A) (A) (A) (A) (A) (A) (A)
                 (A) (A) (A) (A) (A) (A) (A) (A) (A) (A) (A) (A)
                 (A) (A) (A) (A) (A) (A) (A) (A) (A) (A) (A) (A)
                 (A) (A) (A) (A) (A) (A) (A) (A) (A) (A) (A) (A)
                 (A) (A) (A) (A) (A) (A) (A) (A) (A) (A) (A) (A)
                 (A) (A) (A) (A) (A) (A) (A) (A) (A) (A) (A) (A)
                 (A) (A) (A) (A) (A) (A) (A) (A) (A) (A) (A) (A)
                 (A) (A) (A) (A) (A) (A) (A) (A) (A) (A) (A) (A)
                 (A) (A) (A) (A) (A) (A) (A) (A) (A) (A) (A) (A)
                 (A) (A) (A) (A) (A) (A) (A) (A) (A) (A) (A) (A)
                 (A) (A) (A) (A) (A) (A) (A) (A) (A) (A) (A) (A)
                 (A) (A) (A) (A) (A) (A) (A) (A) (A) (A) (A) (A)
                 (A) (A) (A) (A) (A) (A) (A) (A) (A) (A) (A) (A)
                 (A) (A) (A) (A) (A) (A) (A) (A) (A) (A) (A) (A)
                 (A) (A) (A) (A) (A) (A) (A) (A) (A) (A) (A) (A)
                 (A) (A) (A) (A) (A) (A) (A) (A) (A) (A) (A) (A)
                 (A) (A) (A) (A) (A) (A) (A) (A) (A) (A) (A) (A)
                 (A) (A) (A) (A) (A) (A) (A) (A) (A) (A) (A) (A)
                 (A) (A) (A) (A) (A) (A) (A) (A) (A) (A) (A) (A)
                 (A) (A) (A) (A) (A) (A) (A) (A) (A) (A) (A) (A)
                 (A) (A) (A) (A) (A) (A) (A) (A) (A) (A) (A) (A)
                 (A) (A) (A) (A) (A) (A) (A) (A) (A) (A) (A)
 The electronic state is 1-A.
 Alpha  occ. eigenvalues -- **********-478.58629-478.58624-427.60580-414.93487
 Alpha  occ. eigenvalues -- -414.93486-414.93479-100.53717-100.53712 -99.98595
 Alpha  occ. eigenvalues --  -92.14254 -92.14254 -92.14243 -79.10200 -79.10176
 Alpha  occ. eigenvalues --  -79.10033 -79.10032 -79.10030 -61.50458 -61.50454
 Alpha  occ. eigenvalues --  -55.68958 -55.68953 -55.68643 -55.68638 -55.68634
 Alpha  occ. eigenvalues --  -55.68629 -20.90055 -18.78149 -18.78133 -18.78130
 Alpha  occ. eigenvalues --  -18.78113 -17.46500 -17.46500 -17.46476 -14.17302
 Alpha  occ. eigenvalues --  -14.17302 -11.64997 -11.64935 -11.64415 -11.64414
 Alpha  occ. eigenvalues --  -11.64394  -9.11548  -9.11543  -8.33304  -8.33299
 Alpha  occ. eigenvalues --   -6.95495  -6.95490  -6.94670  -6.94665  -6.94647
 Alpha  occ. eigenvalues --   -6.94641  -6.24224  -6.24219  -6.23308  -6.23303
 Alpha  occ. eigenvalues --   -6.23286  -6.23281  -3.19774  -3.19773  -3.19734
 Alpha  occ. eigenvalues --   -3.19485  -3.19439  -3.19438  -3.19066  -2.92747
 Alpha  occ. eigenvalues --   -2.45142  -2.45137  -2.44916  -2.44911  -2.44899
 Alpha  occ. eigenvalues --   -2.44894  -2.44226  -2.44225  -2.44221  -2.44220
 Alpha  occ. eigenvalues --   -1.86671  -1.86666  -1.86632  -1.12273  -1.12183
 Alpha  occ. eigenvalues --   -0.95839  -0.95837  -0.69417  -0.68720  -0.66235
 Alpha  occ. eigenvalues --   -0.65781  -0.58141  -0.56179  -0.48051  -0.46285
 Alpha  occ. eigenvalues --   -0.46282  -0.45784  -0.45143  -0.45143  -0.37685
 Alpha  occ. eigenvalues --   -0.35406  -0.34615  -0.32955  -0.32936  -0.28305
 Alpha  occ. eigenvalues --   -0.28284  -0.28006  -0.27486  -0.26353  -0.24997
 Alpha  occ. eigenvalues --   -0.24035  -0.23979  -0.23729  -0.23602  -0.23215
 Alpha  occ. eigenvalues --   -0.22992  -0.22085  -0.22003  -0.21472  -0.20373
 Alpha virt. eigenvalues --   -0.15300  -0.12236  -0.08609  -0.08605  -0.00183
 Alpha virt. eigenvalues --    0.00688   0.01002   0.01701   0.03095   0.03124
 Alpha virt. eigenvalues --    0.03471   0.04456   0.04724   0.05375   0.06201
 Alpha virt. eigenvalues --    0.07124   0.07622   0.08329   0.09170   0.09322
 Alpha virt. eigenvalues --    0.10026   0.10778   0.10967   0.11431   0.12319
 Alpha virt. eigenvalues --    0.12552   0.15084   0.16196   0.16276   0.17188
 Alpha virt. eigenvalues --    0.17551   0.18487   0.19097   0.19167   0.19583
 Alpha virt. eigenvalues --    0.20433   0.21936   0.22947   0.23371   0.24190
 Alpha virt. eigenvalues --    0.24541   0.25444   0.25697   0.26229   0.27611
 Alpha virt. eigenvalues --    0.28139   0.28827   0.30894   0.31182   0.31997
 Alpha virt. eigenvalues --    0.33002   0.33203   0.33427   0.33740   0.35432
 Alpha virt. eigenvalues --    0.36527   0.36981   0.37529   0.38021   0.38280
 Alpha virt. eigenvalues --    0.39589   0.40268   0.40516   0.41254   0.42094
 Alpha virt. eigenvalues --    0.45598   0.46940   0.47485   0.49774   0.51164
 Alpha virt. eigenvalues --    0.52919   0.53540   0.53962   0.54151   0.56120
 Alpha virt. eigenvalues --    0.56520   0.56959   0.59537   0.59903   0.60471
 Alpha virt. eigenvalues --    0.61316   0.63435   0.63668   0.64352   0.64471
 Alpha virt. eigenvalues --    0.65440   0.66470   0.67623   0.68416   0.69104
 Alpha virt. eigenvalues --    0.69991   0.70807   0.72029   0.72781   0.73321
 Alpha virt. eigenvalues --    0.74874   0.74947   0.75539   0.77239   0.78888
 Alpha virt. eigenvalues --    0.79248   0.79694   0.79823   0.81587   0.82307
 Alpha virt. eigenvalues --    0.83503   0.85380   0.87074   0.88367   0.88656
 Alpha virt. eigenvalues --    0.89621   0.90816   0.92022   0.93014   0.93154
 Alpha virt. eigenvalues --    0.93952   0.96319   0.97067   0.98291   0.99075
 Alpha virt. eigenvalues --    0.99497   1.02051   1.03765   1.03818   1.04227
 Alpha virt. eigenvalues --    1.04864   1.05583   1.06062   1.06773   1.07246
 Alpha virt. eigenvalues --    1.09024   1.09732   1.10858   1.12816   1.13265
 Alpha virt. eigenvalues --    1.13925   1.14400   1.15798   1.16343   1.17315
 Alpha virt. eigenvalues --    1.17618   1.18670   1.19588   1.19952   1.20535
 Alpha virt. eigenvalues --    1.22251   1.23853   1.24326   1.25087   1.26246
 Alpha virt. eigenvalues --    1.26658   1.28408   1.29229   1.29920   1.30720
 Alpha virt. eigenvalues --    1.31097   1.31636   1.32549   1.32789   1.35801
 Alpha virt. eigenvalues --    1.37494   1.37863   1.38514   1.39587   1.41669
 Alpha virt. eigenvalues --    1.42700   1.44817   1.45795   1.47737   1.48257
 Alpha virt. eigenvalues --    1.50247   1.50344   1.51744   1.54433   1.60310
 Alpha virt. eigenvalues --    1.63293   1.63911   1.64077   1.67043   1.69449
 Alpha virt. eigenvalues --    1.70167   1.70699   1.75038   1.79522   1.83323
 Alpha virt. eigenvalues --    1.84580   1.85699   1.86145   1.86566   1.91067
 Alpha virt. eigenvalues --    1.95090   1.97032   1.97223   1.99371   2.05338
 Alpha virt. eigenvalues --    2.20929   2.22122   2.36702   2.36808   2.40413
 Alpha virt. eigenvalues --    2.41010   2.45824   2.46096   2.49115   2.49430
 Alpha virt. eigenvalues --    2.53275   2.53936   2.54380   2.55478   2.57779
 Alpha virt. eigenvalues --    2.58845   2.60678   2.65639   2.66911   2.70783
 Alpha virt. eigenvalues --    2.70856   2.73756   2.74999   2.76454   2.80025
 Alpha virt. eigenvalues --    2.80135   2.88746   2.96847   3.03856   3.07236
 Alpha virt. eigenvalues --    3.09702   3.11565   3.12127   3.12980   3.19257
 Alpha virt. eigenvalues --    3.20689   3.22853   3.23313   3.25226   3.25841
 Alpha virt. eigenvalues --    3.30391   3.31022   3.43313   3.43918   3.56119
 Alpha virt. eigenvalues --    3.58301   3.69751   3.72295   3.75052   3.76622
 Alpha virt. eigenvalues --    3.80686   3.81752   3.82888   3.83310   3.84149
 Alpha virt. eigenvalues --    3.86583   3.90934   3.93454   4.00627   4.04322
 Alpha virt. eigenvalues --    4.05250   4.07533   4.08271   4.08497   4.09121
 Alpha virt. eigenvalues --    4.26067   4.29827   4.30162   4.31471   4.32631
 Alpha virt. eigenvalues --    4.33297   4.33543   4.33872   4.36160   4.36596
 Alpha virt. eigenvalues --    4.37891   4.38723   4.39684   4.40371   4.43001
 Alpha virt. eigenvalues --    4.43367   4.46534   4.48025   4.49145   4.49771
 Alpha virt. eigenvalues --    4.50991   5.39399   5.43432   5.62791   5.63815
 Alpha virt. eigenvalues --    5.81882   5.91121   5.94552   5.99566   6.02177
 Alpha virt. eigenvalues --    6.02609   6.06865   6.11138   6.11748   6.28272
 Alpha virt. eigenvalues --    6.34917   6.83970   6.94561   6.99454   6.99912
 Alpha virt. eigenvalues --    8.41843   8.42090   8.42746   8.44760   8.47172
 Alpha virt. eigenvalues --    8.47953   8.48778   8.48859   8.64112   8.78238
 Alpha virt. eigenvalues --    9.73082   9.80447   9.80615   9.85037   9.86060
 Alpha virt. eigenvalues --    9.86530   9.87758   9.94994  10.03337  10.09466
 Alpha virt. eigenvalues --   10.14357  14.08702  14.14456  16.90497  16.94513
 Alpha virt. eigenvalues --   20.29719  20.29762  20.30055  20.30436  20.38636
 Alpha virt. eigenvalues --   20.41655  20.88343  20.89560  21.00887  22.97137
 Alpha virt. eigenvalues --   23.00667  25.88206  30.15849  30.22653  30.28761
 Alpha virt. eigenvalues --   30.29223  42.80770  42.85205  42.85237  42.95482
 Alpha virt. eigenvalues --   43.02734  65.14014  65.18949  78.20796  78.24149
 Alpha virt. eigenvalues --   81.93076  86.02336  86.03236  86.12098 112.74044
 Alpha virt. eigenvalues --  112.74108 112.74241 112.74637 112.80401 112.82333
 Alpha virt. eigenvalues --  123.11236 123.15835 162.91715 162.98657 163.05457
 Alpha virt. eigenvalues --  163.05918 257.05266 282.48110 282.52325 428.64043
 Alpha virt. eigenvalues --  428.64719 428.71500 431.83269 431.86589 772.74504
 Alpha virt. eigenvalues -- 1043.644261043.680922068.359265495.172515634.51521
 Alpha virt. eigenvalues -- 5634.56393********************
          Condensed to atoms (all electrons):
               1          2          3          4          5          6
     1  Pt  78.165765  -0.005824   0.022258   0.072643   0.073251  -0.007831
     2  Br  -0.005824  35.385270  -0.015450  -0.025636   0.000386   0.009361
     3  N    0.022258  -0.015450   5.881740   0.587911   0.584906  -0.015568
     4  O    0.072643  -0.025636   0.587911   7.568005  -0.083584   0.000494
     5  O    0.073251   0.000386   0.584906  -0.083584   7.571339  -0.023950
     6  Br  -0.007831   0.009361  -0.015568   0.000494  -0.023950  35.386826
     7  N    0.020636  -0.013412  -0.007660   0.000196   0.000200  -0.013311
     8  O    0.070594   0.000440   0.000225  -0.000002  -0.000002   0.000443
     9  O    0.065358  -0.021014   0.000201  -0.000002  -0.000002  -0.023306
    10  Cl  -0.045784  -0.020628  -0.004871   0.002949  -0.021789  -0.033223
    11  Cl  -0.042150  -0.032313  -0.004759  -0.020074   0.003084  -0.020469
               7          8          9         10         11
     1  Pt   0.020636   0.070594   0.065358  -0.045784  -0.042150
     2  Br  -0.013412   0.000440  -0.021014  -0.020628  -0.032313
     3  N   -0.007660   0.000225   0.000201  -0.004871  -0.004759
     4  O    0.000196  -0.000002  -0.000002   0.002949  -0.020074
     5  O    0.000200  -0.000002  -0.000002  -0.021789   0.003084
     6  Br  -0.013311   0.000443  -0.023306  -0.033223  -0.020469
     7  N    5.875450   0.583984   0.596951  -0.007687  -0.007820
     8  O    0.583984   7.587509  -0.084153  -0.020864  -0.021767
     9  O    0.596951  -0.084153   7.556602   0.002693   0.002547
    10  Cl  -0.007687  -0.020864   0.002693  17.517908  -0.061525
    11  Cl  -0.007820  -0.021767   0.002547  -0.061525  17.513025
 Mulliken charges:
               1
     1  Pt  -0.388915
     2  Br  -0.261179
     3  N   -0.028933
     4  O   -0.102901
     5  O   -0.103840
     6  Br  -0.259466
     7  N   -0.027526
     8  O   -0.116406
     9  O   -0.095876
    10  Cl  -0.307178
    11  Cl  -0.307779
 Sum of Mulliken charges =  -2.00000
 Mulliken charges with hydrogens summed into heavy atoms:
               1
     1  Pt  -0.388915
     2  Br  -0.261179
     3  N   -0.028933
     4  O   -0.102901
     5  O   -0.103840
     6  Br  -0.259466
     7  N   -0.027526
     8  O   -0.116406
     9  O   -0.095876
    10  Cl  -0.307178
    11  Cl  -0.307779
 Electronic spatial extent (au):  <R**2>=           3789.7912
 Charge=             -2.0000 electrons
 Dipole moment (field-independent basis, Debye):
    X=              0.0049    Y=             -3.2477    Z=             -0.1311  Tot=              3.2503
 Quadrupole moment (field-independent basis, Debye-Ang):
   XX=           -156.7760   YY=           -157.8563   ZZ=           -162.0906
   XY=              0.0155   XZ=              0.0471   YZ=              0.2455
 Traceless Quadrupole moment (field-independent basis, Debye-Ang):
   XX=              2.1316   YY=              1.0514   ZZ=             -3.1830
   XY=              0.0155   XZ=              0.0471   YZ=              0.2455
 Octapole moment (field-independent basis, Debye-Ang**2):
  XXX=             -0.3188  YYY=            -67.6067  ZZZ=             -2.8640  XYY=              0.1597
  XXY=            -24.9595  XXZ=             11.2422  XZZ=              0.4681  YZZ=            -25.3535
  YYZ=            -12.8610  XYZ=              0.6562
 Hexadecapole moment (field-independent basis, Debye-Ang**3):
 XXXX=          -1574.0554 YYYY=          -1564.6879 ZZZZ=          -1763.3495 XXXY=             -0.1051
 XXXZ=             -0.0531 YYYX=              0.2903 YYYZ=            -10.0303 ZZZX=              2.9189
 ZZZY=             10.9834 XXYY=           -542.3999 XXZZ=           -520.2377 YYZZ=           -520.7489
 XXYZ=              3.5001 YYXZ=              0.1768 ZZXY=              0.1499
 N-N= 3.871041280691D+03 E-N=-6.374008430770D+04  KE= 2.325388554716D+04
 Calculating spin-rotation constants.
 Leave Link  601 at Sat Oct 30 05:20:43 2021, MaxMem=  2013265920 cpu:         6.3
 (Enter /scr/programas/g09/l9999.exe)
 1\1\GINC-NQTCM04\SP\RPBEPBE\Gen\Br2Cl2N2O4Pt1(2-)\DIEGO\30-Oct-2021\0\
 \#PBEPBE/gen scf=maxcycle=200 NMR=GIAO Scrf=(solvent=water)\\estrutura
  39\\-2,1\Pt,0,0.000713,0.291354,-0.011206\Br,0,1.78971,-1.497864,0.06
 8705\N,0,-0.024988,0.388699,2.116432\O,0,1.036666,0.380212,2.718669\O,
 0,-1.10018,0.461801,2.689537\Br,0,-1.798703,-1.488452,0.044833\N,0,0.0
 2919,0.220711,-2.139967\O,0,0.082957,1.271806,-2.757832\O,0,-0.008485,
 -0.863997,-2.698918\Cl,0,-1.696215,1.988728,-0.11139\Cl,0,1.704571,1.9
 83686,-0.038414\\Version=EM64L-G09RevD.01\State=1-A\HF=-23577.297042\R
 MSD=9.149e-09\Dipole=-0.0019364,-1.2777395,0.0515601\Quadrupole=1.5848
 145,0.7816583,-2.3664728,-0.0114873,0.0350538,-0.1825107\PG=C01 [X(Br2
 Cl2N2O4Pt1)]\\@


 ... THE UNIVERSE IS NOT ONLY QUEERER THAN WE SUPPOSE,
 BUT QUEERER THAN WE CAN SUPPOSE ... 

                                   -- J. B. S. HALDANE
 Job cpu time:       0 days  1 hours 14 minutes 34.9 seconds.
 File lengths (MBytes):  RWF=    189 Int=      0 D2E=      0 Chk=     15 Scr=      1
 Normal termination of Gaussian 09 at Sat Oct 30 05:20:43 2021.
