 Entering Gaussian System, Link 0=g09
 Input=estrutura35freq_LANL2DZ_TZVP.com
 Output=estrutura35freq_LANL2DZ_TZVP.log
 Initial command:
 /scr/programas/g09/l1.exe "/scr/diego/Gau-6711.inp" -scrdir="/scr/diego/"
 Entering Link 1 = /scr/programas/g09/l1.exe PID=      6713.
  
 Copyright (c) 1988,1990,1992,1993,1995,1998,2003,2009,2013,
            Gaussian, Inc.  All Rights Reserved.
  
 This is part of the Gaussian(R) 09 program.  It is based on
 the Gaussian(R) 03 system (copyright 2003, Gaussian, Inc.),
 the Gaussian(R) 98 system (copyright 1998, Gaussian, Inc.),
 the Gaussian(R) 94 system (copyright 1995, Gaussian, Inc.),
 the Gaussian 92(TM) system (copyright 1992, Gaussian, Inc.),
 the Gaussian 90(TM) system (copyright 1990, Gaussian, Inc.),
 the Gaussian 88(TM) system (copyright 1988, Gaussian, Inc.),
 the Gaussian 86(TM) system (copyright 1986, Carnegie Mellon
 University), and the Gaussian 82(TM) system (copyright 1983,
 Carnegie Mellon University). Gaussian is a federally registered
 trademark of Gaussian, Inc.
  
 This software contains proprietary and confidential information,
 including trade secrets, belonging to Gaussian, Inc.
  
 This software is provided under written license and may be
 used, copied, transmitted, or stored only in accord with that
 written license.
  
 The following legend is applicable only to US Government
 contracts under FAR:
  
                    RESTRICTED RIGHTS LEGEND
  
 Use, reproduction and disclosure by the US Government is
 subject to restrictions as set forth in subparagraphs (a)
 and (c) of the Commercial Computer Software - Restricted
 Rights clause in FAR 52.227-19.
  
 Gaussian, Inc.
 340 Quinnipiac St., Bldg. 40, Wallingford CT 06492
  
  
 ---------------------------------------------------------------
 Warning -- This program may not be used in any manner that
 competes with the business of Gaussian, Inc. or will provide
 assistance to any competitor of Gaussian, Inc.  The licensee
 of this program is prohibited from giving any competitor of
 Gaussian, Inc. access to this program.  By using this program,
 the user acknowledges that Gaussian, Inc. is engaged in the
 business of creating and licensing software in the field of
 computational chemistry and represents and warrants to the
 licensee that it is not a competitor of Gaussian, Inc. and that
 it will not use this program in any manner prohibited above.
 ---------------------------------------------------------------
  

 Cite this work as:
 Gaussian 09, Revision D.01,
 M. J. Frisch, G. W. Trucks, H. B. Schlegel, G. E. Scuseria, 
 M. A. Robb, J. R. Cheeseman, G. Scalmani, V. Barone, B. Mennucci, 
 G. A. Petersson, H. Nakatsuji, M. Caricato, X. Li, H. P. Hratchian, 
 A. F. Izmaylov, J. Bloino, G. Zheng, J. L. Sonnenberg, M. Hada, 
 M. Ehara, K. Toyota, R. Fukuda, J. Hasegawa, M. Ishida, T. Nakajima, 
 Y. Honda, O. Kitao, H. Nakai, T. Vreven, J. A. Montgomery, Jr., 
 J. E. Peralta, F. Ogliaro, M. Bearpark, J. J. Heyd, E. Brothers, 
 K. N. Kudin, V. N. Staroverov, T. Keith, R. Kobayashi, J. Normand, 
 K. Raghavachari, A. Rendell, J. C. Burant, S. S. Iyengar, J. Tomasi, 
 M. Cossi, N. Rega, J. M. Millam, M. Klene, J. E. Knox, J. B. Cross, 
 V. Bakken, C. Adamo, J. Jaramillo, R. Gomperts, R. E. Stratmann, 
 O. Yazyev, A. J. Austin, R. Cammi, C. Pomelli, J. W. Ochterski, 
 R. L. Martin, K. Morokuma, V. G. Zakrzewski, G. A. Voth, 
 P. Salvador, J. J. Dannenberg, S. Dapprich, A. D. Daniels, 
 O. Farkas, J. B. Foresman, J. V. Ortiz, J. Cioslowski, 
 and D. J. Fox, Gaussian, Inc., Wallingford CT, 2013.
 
 ******************************************
 Gaussian 09:  EM64L-G09RevD.01 24-Apr-2013
                30-Oct-2021 
 ******************************************
 %mem=15Gb
 %nproc=4
 Will use up to    4 processors via shared memory.
 ----------------------------------------------------------
 #PBEPBE/gen scf=maxcycle=200 NMR=GIAO Scrf=(solvent=water)
 ----------------------------------------------------------
 1/38=1/1;
 2/12=2,17=6,18=5,40=1/2;
 3/5=7,11=2,16=1,25=1,30=1,70=2201,72=1,74=1009/1,2,8,3;
 4//1;
 5/5=2,7=200,38=5,53=1/2;
 8/6=1,10=90,11=11/1;
 10/13=100,45=16/2;
 6/7=2,8=2,9=2,10=2,28=1/1;
 99/9=1/99;
 Leave Link    1 at Sat Oct 30 03:58:40 2021, MaxMem=  2013265920 cpu:         0.2
 (Enter /scr/programas/g09/l101.exe)
 ------------
 estrutura 35
 ------------
 Symbolic Z-matrix:
 Charge = -2 Multiplicity = 1
 Pt                    0.00154  -0.10975   0.19379 
 Br                   -0.04823  -0.34464  -2.32692 
 Br                    0.04552   2.4591   -0.05475 
 Br                   -2.54276  -0.07094   0.27801 
 Br                    2.54557  -0.15949   0.11371 
 Cl                    0.04712   0.151     2.58216 
 N                    -0.03277  -2.20723   0.41823 
 O                    -0.77717  -2.85349  -0.29424 
 O                     0.69027  -2.70866   1.25781 
 
 NAtoms=      9 NQM=        9 NQMF=       0 NMMI=      0 NMMIF=      0
                NMic=       0 NMicF=      0.
                    Isotopes and Nuclear Properties:
 (Nuclear quadrupole moments (NQMom) in fm**2, nuclear magnetic moments (NMagM)
  in nuclear magnetons)

  Atom         1           2           3           4           5           6           7           8           9
 IAtWgt=         195          79          79          79          79          35          14          16          16
 AtmWgt= 194.9648000  78.9183361  78.9183361  78.9183361  78.9183361  34.9688527  14.0030740  15.9949146  15.9949146
 NucSpn=           1           3           3           3           3           3           2           0           0
 AtZEff=   0.0000000   0.0000000   0.0000000   0.0000000   0.0000000   0.0000000   0.0000000   0.0000000   0.0000000
 NQMom=    0.0000000  31.3000000  31.3000000  31.3000000  31.3000000  -8.1650000   2.0440000   0.0000000   0.0000000
 NMagM=    0.6095000   2.1063990   2.1063990   2.1063990   2.1063990   0.8218740   0.4037610   0.0000000   0.0000000
 AtZNuc=  78.0000000  35.0000000  35.0000000  35.0000000  35.0000000  17.0000000   7.0000000   8.0000000   8.0000000
 Leave Link  101 at Sat Oct 30 03:58:40 2021, MaxMem=  2013265920 cpu:         0.4
 (Enter /scr/programas/g09/l202.exe)
                          Input orientation:                          
 ---------------------------------------------------------------------
 Center     Atomic      Atomic             Coordinates (Angstroms)
 Number     Number       Type             X           Y           Z
 ---------------------------------------------------------------------
      1         78           0        0.001541   -0.109745    0.193786
      2         35           0       -0.048225   -0.344644   -2.326916
      3         35           0        0.045516    2.459096   -0.054750
      4         35           0       -2.542763   -0.070936    0.278011
      5         35           0        2.545566   -0.159492    0.113706
      6         17           0        0.047122    0.150998    2.582161
      7          7           0       -0.032771   -2.207226    0.418227
      8          8           0       -0.777173   -2.853487   -0.294242
      9          8           0        0.690272   -2.708657    1.257812
 ---------------------------------------------------------------------
                    Distance matrix (angstroms):
                    1          2          3          4          5
     1  Pt   0.000000
     2  Br   2.532112   0.000000
     3  Br   2.581211   3.610053   0.000000
     4  Br   2.545993   3.617082   3.634691   0.000000
     5  Br   2.545771   3.566324   3.624311   5.091751   0.000000
     6  Cl   2.402998   4.934956   3.504371   3.473596   3.525889
     7  N    2.109734   3.317418   4.690884   3.299008   3.306625
     8  O    2.893560   3.310200   5.381237   3.344753   4.297048
     9  O    2.891513   4.357087   5.370680   4.286035   3.354003
                    6          7          8          9
     6  Cl   0.000000
     7  N    3.201595   0.000000
     8  O    4.240293   1.216306   0.000000
     9  O    3.216391   1.216194   2.140851   0.000000
 Stoichiometry    Br4ClNO2Pt(2-)
 Framework group  C1[X(Br4ClNO2Pt)]
 Deg. of freedom    21
 Full point group                 C1      NOp   1
 Largest Abelian subgroup         C1      NOp   1
 Largest concise Abelian subgroup C1      NOp   1
                         Standard orientation:                         
 ---------------------------------------------------------------------
 Center     Atomic      Atomic             Coordinates (Angstroms)
 Number     Number       Type             X           Y           Z
 ---------------------------------------------------------------------
      1         78           0       -0.001541   -0.109745   -0.193786
      2         35           0        0.048225   -0.344644    2.326916
      3         35           0       -0.045516    2.459096    0.054750
      4         35           0        2.542763   -0.070936   -0.278011
      5         35           0       -2.545566   -0.159492   -0.113706
      6         17           0       -0.047122    0.150998   -2.582161
      7          7           0        0.032771   -2.207226   -0.418227
      8          8           0        0.777173   -2.853487    0.294242
      9          8           0       -0.690272   -2.708657   -1.257812
 ---------------------------------------------------------------------
 Rotational constants (GHZ):      0.3342788      0.2899023      0.2735697
 Leave Link  202 at Sat Oct 30 03:58:40 2021, MaxMem=  2013265920 cpu:         0.0
 (Enter /scr/programas/g09/l301.exe)
 General basis read from cards:  (5D, 7F)
 Centers:       7
 S 6 1.00
     Exponent=  1.2238326969D+04 Coefficients=  5.6000000000D-04
     Exponent=  4.0794423230D+03 Coefficients=  7.7000000000D-04
     Exponent=  1.3598141077D+03 Coefficients=  4.0600000000D-03
     Exponent=  4.5327136922D+02 Coefficients=  1.3910000000D-02
     Exponent=  1.5109045641D+02 Coefficients=  5.2990000000D-02
     Exponent=  5.0363485469D+01 Coefficients=  1.6952000000D-01
 S 1 1.00
     Exponent=  1.6787828490D+01 Coefficients=  1.0000000000D+00
 S 1 1.00
     Exponent=  5.5959428299D+00 Coefficients=  1.0000000000D+00
 S 1 1.00
     Exponent=  1.8653142766D+00 Coefficients=  1.0000000000D+00
 S 1 1.00
     Exponent=  6.2177142554D-01 Coefficients=  1.0000000000D+00
 S 1 1.00
     Exponent=  2.0725714185D-01 Coefficients=  1.0000000000D+00
 P 4 1.00
     Exponent=  5.4142548249D+01 Coefficients=  3.9700000000D-03
     Exponent=  1.6659245615D+01 Coefficients=  1.9540000000D-02
     Exponent=  5.1259217277D+00 Coefficients=  9.9790000000D-02
     Exponent=  1.5772066854D+00 Coefficients=  3.2845000000D-01
 P 1 1.00
     Exponent=  4.8529436475D-01 Coefficients=  1.0000000000D+00
 P 1 1.00
     Exponent=  1.4932134300D-01 Coefficients=  1.0000000000D+00
 D 1 1.00
     Exponent=  4.7700000000D-01 Coefficients=  1.0000000000D+00
 D 1 1.00
     Exponent=  1.5026000000D-01 Coefficients=  1.0000000000D+00
 ****
 Centers:       8      9
 S 6 1.00
     Exponent=  1.6178118231D+04 Coefficients=  6.0000000000D-04
     Exponent=  5.3927060771D+03 Coefficients=  7.8000000000D-04
     Exponent=  1.7975686924D+03 Coefficients=  4.1000000000D-03
     Exponent=  5.9918956413D+02 Coefficients=  1.3880000000D-02
     Exponent=  1.9972985471D+02 Coefficients=  5.2770000000D-02
     Exponent=  6.6576618236D+01 Coefficients=  1.6924000000D-01
 S 1 1.00
     Exponent=  2.2192206079D+01 Coefficients=  1.0000000000D+00
 S 1 1.00
     Exponent=  7.3974020263D+00 Coefficients=  1.0000000000D+00
 S 1 1.00
     Exponent=  2.4658006754D+00 Coefficients=  1.0000000000D+00
 S 1 1.00
     Exponent=  8.2193355847D-01 Coefficients=  1.0000000000D+00
 S 1 1.00
     Exponent=  2.7397785282D-01 Coefficients=  1.0000000000D+00
 P 4 1.00
     Exponent=  7.3854398670D+01 Coefficients=  4.0200000000D-03
     Exponent=  2.2724430360D+01 Coefficients=  2.0130000000D-02
     Exponent=  6.9921324184D+00 Coefficients=  1.0470000000D-01
     Exponent=  2.1514253595D+00 Coefficients=  3.3605000000D-01
 P 1 1.00
     Exponent=  6.6197703370D-01 Coefficients=  1.0000000000D+00
 P 1 1.00
     Exponent=  2.0368524114D-01 Coefficients=  1.0000000000D+00
 D 1 1.00
     Exponent=  9.2880000000D-01 Coefficients=  1.0000000000D+00
 D 1 1.00
     Exponent=  2.2975000000D-01 Coefficients=  1.0000000000D+00
 ****
 Centers:       6
 S 7 1.00
     Exponent=  7.7142817164D+04 Coefficients=  1.0600000000D-03
     Exponent=  2.8051933514D+04 Coefficients=  6.4000000000D-04
     Exponent=  1.0200703096D+04 Coefficients=  3.9600000000D-03
     Exponent=  3.7093465804D+03 Coefficients=  9.8300000000D-03
     Exponent=  1.3488533020D+03 Coefficients=  3.2690000000D-02
     Exponent=  4.9049210981D+02 Coefficients=  9.9520000000D-02
     Exponent=  1.7836076720D+02 Coefficients=  2.6555000000D-01
 S 1 1.00
     Exponent=  6.4858460801D+01 Coefficients=  1.0000000000D+00
 S 1 1.00
     Exponent=  2.3584894837D+01 Coefficients=  1.0000000000D+00
 S 1 1.00
     Exponent=  8.5763253951D+00 Coefficients=  1.0000000000D+00
 S 1 1.00
     Exponent=  3.1186637801D+00 Coefficients=  1.0000000000D+00
 S 1 1.00
     Exponent=  1.1340595564D+00 Coefficients=  1.0000000000D+00
 S 1 1.00
     Exponent=  4.1238529323D-01 Coefficients=  1.0000000000D+00
 S 1 1.00
     Exponent=  1.4995828845D-01 Coefficients=  1.0000000000D+00
 S 1 1.00
     Exponent=  5.4530286708D-02 Coefficients=  1.0000000000D+00
 P 5 1.00
     Exponent=  6.9498536057D+02 Coefficients=  2.0000000000D-03
     Exponent=  2.3166178686D+02 Coefficients=  8.9500000000D-03
     Exponent=  7.7220595619D+01 Coefficients=  5.1130000000D-02
     Exponent=  2.5740198540D+01 Coefficients=  2.1011000000D-01
     Exponent=  8.5800661799D+00 Coefficients=  4.9738000000D-01
 P 1 1.00
     Exponent=  2.8600220600D+00 Coefficients=  1.0000000000D+00
 P 1 1.00
     Exponent=  9.5334068665D-01 Coefficients=  1.0000000000D+00
 P 1 1.00
     Exponent=  3.1778022888D-01 Coefficients=  1.0000000000D+00
 P 1 1.00
     Exponent=  1.0592674296D-01 Coefficients=  1.0000000000D+00
 P 1 1.00
     Exponent=  3.5308914320D-02 Coefficients=  1.0000000000D+00
 D 1 1.00
     Exponent=  5.5696000000D-01 Coefficients=  1.0000000000D+00
 D 1 1.00
     Exponent=  1.5619100000D-01 Coefficients=  1.0000000000D+00
 ****
 Centers:       2      3      4      5
 S 7 1.00
     Exponent=  3.4867099512D+05 Coefficients=  2.4100000000D-03
     Exponent=  1.3946839805D+05 Coefficients=  1.2000000000D-04
     Exponent=  5.5787359218D+04 Coefficients=  5.8500000000D-03
     Exponent=  2.2314943687D+04 Coefficients=  8.2100000000D-03
     Exponent=  8.9259774750D+03 Coefficients=  2.4090000000D-02
     Exponent=  3.5703909900D+03 Coefficients=  5.7250000000D-02
     Exponent=  1.4281563960D+03 Coefficients=  1.4467000000D-01
 S 1 1.00
     Exponent=  5.7126255840D+02 Coefficients=  1.0000000000D+00
 S 1 1.00
     Exponent=  2.2850502336D+02 Coefficients=  1.0000000000D+00
 S 1 1.00
     Exponent=  9.1402009344D+01 Coefficients=  1.0000000000D+00
 S 1 1.00
     Exponent=  3.6560803737D+01 Coefficients=  1.0000000000D+00
 S 1 1.00
     Exponent=  1.4624321495D+01 Coefficients=  1.0000000000D+00
 S 1 1.00
     Exponent=  5.8497285980D+00 Coefficients=  1.0000000000D+00
 S 1 1.00
     Exponent=  2.3398914392D+00 Coefficients=  1.0000000000D+00
 S 1 1.00
     Exponent=  9.3595657568D-01 Coefficients=  1.0000000000D+00
 S 1 1.00
     Exponent=  3.7438263027D-01 Coefficients=  1.0000000000D+00
 S 1 1.00
     Exponent=  1.4975305211D-01 Coefficients=  1.0000000000D+00
 S 1 1.00
     Exponent=  5.9901220843D-02 Coefficients=  1.0000000000D+00
 P 5 1.00
     Exponent=  4.2715043612D+03 Coefficients=  2.0900000000D-03
     Exponent=  1.5532743132D+03 Coefficients=  5.5700000000D-03
     Exponent=  5.6482702297D+02 Coefficients=  3.0250000000D-02
     Exponent=  2.0539164472D+02 Coefficients=  1.2196000000D-01
     Exponent=  7.4687870806D+01 Coefficients=  3.7861000000D-01
 P 1 1.00
     Exponent=  2.7159225748D+01 Coefficients=  1.0000000000D+00
 P 1 1.00
     Exponent=  9.8760820901D+00 Coefficients=  1.0000000000D+00
 P 1 1.00
     Exponent=  3.5913025782D+00 Coefficients=  1.0000000000D+00
 P 1 1.00
     Exponent=  1.3059282103D+00 Coefficients=  1.0000000000D+00
 P 1 1.00
     Exponent=  4.7488298555D-01 Coefficients=  1.0000000000D+00
 P 1 1.00
     Exponent=  1.7268472202D-01 Coefficients=  1.0000000000D+00
 P 1 1.00
     Exponent=  6.2794444370D-02 Coefficients=  1.0000000000D+00
 P 1 1.00
     Exponent=  2.2834343407D-02 Coefficients=  1.0000000000D+00
 D 4 1.00
     Exponent=  1.5776624282D+02 Coefficients=  7.9800000000D-03
     Exponent=  5.2588747607D+01 Coefficients=  4.9870000000D-02
     Exponent=  1.7529582536D+01 Coefficients=  2.2405000000D-01
     Exponent=  5.8431941786D+00 Coefficients=  4.4250000000D-01
 D 1 1.00
     Exponent=  1.9477313929D+00 Coefficients=  1.0000000000D+00
 D 1 1.00
     Exponent=  6.4924379762D-01 Coefficients=  1.0000000000D+00
 F 1 1.00
     Exponent=  1.6480000000D+00 Coefficients=  1.0000000000D+00
 F 1 1.00
     Exponent=  4.5490000000D-01 Coefficients=  1.0000000000D+00
 ****
 Centers:       1
 S 9 1.00
     Exponent=  2.1644816090D+06 Coefficients=  1.2320000000D-02
     Exponent=  1.0822408045D+06 Coefficients=  1.2970000000D-02
     Exponent=  5.4112040224D+05 Coefficients=  2.6370000000D-02
     Exponent=  2.7056020112D+05 Coefficients=  9.0400000000D-03
     Exponent=  1.3528010056D+05 Coefficients=  3.4980000000D-02
     Exponent=  6.7640050280D+04 Coefficients=  1.2220000000D-02
     Exponent=  3.3820025140D+04 Coefficients=  6.0520000000D-02
     Exponent=  1.6910012570D+04 Coefficients=  6.4930000000D-02
     Exponent=  8.4550062850D+03 Coefficients=  1.3819000000D-01
 S 1 1.00
     Exponent=  4.2275031425D+03 Coefficients=  1.0000000000D+00
 S 1 1.00
     Exponent=  2.1137515713D+03 Coefficients=  1.0000000000D+00
 S 1 1.00
     Exponent=  1.0568757856D+03 Coefficients=  1.0000000000D+00
 S 1 1.00
     Exponent=  5.2843789281D+02 Coefficients=  1.0000000000D+00
 S 1 1.00
     Exponent=  2.6421894641D+02 Coefficients=  1.0000000000D+00
 S 1 1.00
     Exponent=  1.3210947320D+02 Coefficients=  1.0000000000D+00
 S 1 1.00
     Exponent=  6.6054736602D+01 Coefficients=  1.0000000000D+00
 S 1 1.00
     Exponent=  3.3027368301D+01 Coefficients=  1.0000000000D+00
 S 1 1.00
     Exponent=  1.6513684150D+01 Coefficients=  1.0000000000D+00
 S 1 1.00
     Exponent=  8.2568420752D+00 Coefficients=  1.0000000000D+00
 S 1 1.00
     Exponent=  4.1284210376D+00 Coefficients=  1.0000000000D+00
 S 1 1.00
     Exponent=  2.0642105188D+00 Coefficients=  1.0000000000D+00
 S 1 1.00
     Exponent=  1.0321052594D+00 Coefficients=  1.0000000000D+00
 S 1 1.00
     Exponent=  5.1605262970D-01 Coefficients=  1.0000000000D+00
 S 1 1.00
     Exponent=  2.5802631485D-01 Coefficients=  1.0000000000D+00
 S 1 1.00
     Exponent=  1.2901315743D-01 Coefficients=  1.0000000000D+00
 S 1 1.00
     Exponent=  6.4506578713D-02 Coefficients=  1.0000000000D+00
 P 7 1.00
     Exponent=  3.2357915258D+04 Coefficients=  5.0200000000D-03
     Exponent=  1.4381295670D+04 Coefficients=  2.0200000000D-03
     Exponent=  6.3916869645D+03 Coefficients=  1.8070000000D-02
     Exponent=  2.8407497620D+03 Coefficients=  3.6620000000D-02
     Exponent=  1.2625554498D+03 Coefficients=  1.1172000000D-01
     Exponent=  5.6113575545D+02 Coefficients=  2.5586000000D-01
     Exponent=  2.4939366909D+02 Coefficients=  4.2608000000D-01
 P 1 1.00
     Exponent=  1.1084163071D+02 Coefficients=  1.0000000000D+00
 P 1 1.00
     Exponent=  4.9262946981D+01 Coefficients=  1.0000000000D+00
 P 1 1.00
     Exponent=  2.1894643103D+01 Coefficients=  1.0000000000D+00
 P 1 1.00
     Exponent=  9.7309524900D+00 Coefficients=  1.0000000000D+00
 P 1 1.00
     Exponent=  4.3248677733D+00 Coefficients=  1.0000000000D+00
 P 1 1.00
     Exponent=  1.9221634548D+00 Coefficients=  1.0000000000D+00
 P 1 1.00
     Exponent=  8.5429486881D-01 Coefficients=  1.0000000000D+00
 P 1 1.00
     Exponent=  3.7968660836D-01 Coefficients=  1.0000000000D+00
 P 1 1.00
     Exponent=  1.6874960372D-01 Coefficients=  1.0000000000D+00
 P 1 1.00
     Exponent=  7.4999823874D-02 Coefficients=  1.0000000000D+00
 P 1 1.00
     Exponent=  3.3333255055D-02 Coefficients=  1.0000000000D+00
 D 5 1.00
     Exponent=  1.9119003508D+03 Coefficients=  4.3300000000D-03
     Exponent=  7.6476014031D+02 Coefficients=  1.7780000000D-02
     Exponent=  3.0590405613D+02 Coefficients=  8.9710000000D-02
     Exponent=  1.2236162245D+02 Coefficients=  3.1123000000D-01
     Exponent=  4.8944648980D+01 Coefficients=  5.3206000000D-01
 D 1 1.00
     Exponent=  1.9577859592D+01 Coefficients=  1.0000000000D+00
 D 1 1.00
     Exponent=  7.8311438368D+00 Coefficients=  1.0000000000D+00
 D 1 1.00
     Exponent=  3.1324575347D+00 Coefficients=  1.0000000000D+00
 D 1 1.00
     Exponent=  1.2529830139D+00 Coefficients=  1.0000000000D+00
 D 1 1.00
     Exponent=  5.0119320556D-01 Coefficients=  1.0000000000D+00
 D 1 1.00
     Exponent=  2.0047728222D-01 Coefficients=  1.0000000000D+00
 D 1 1.00
     Exponent=  8.0190912889D-02 Coefficients=  1.0000000000D+00
 D 1 1.00
     Exponent=  3.2076365156D-02 Coefficients=  1.0000000000D+00
 F 4 1.00
     Exponent=  8.2289680979D+01 Coefficients=  6.1870000000D-02
     Exponent=  2.9923520356D+01 Coefficients=  2.4823000000D-01
     Exponent=  1.0881280130D+01 Coefficients=  4.9956000000D-01
     Exponent=  3.9568291380D+00 Coefficients=  4.0380000000D-01
 F 1 1.00
     Exponent=  1.4388469593D+00 Coefficients=  1.0000000000D+00
 F 1 1.00
     Exponent=  5.2321707610D-01 Coefficients=  1.0000000000D+00
 G 1 1.00
     Exponent=  2.6700000000D+00 Coefficients=  1.0000000000D+00
 G 1 1.00
     Exponent=  9.0960000000D-01 Coefficients=  1.0000000000D+00
 ****
 Ernie: Thresh=  0.10000D-02 Tol=  0.10000D-05 Strict=F.
 There are   596 symmetry adapted cartesian basis functions of A   symmetry.
 There are   522 symmetry adapted basis functions of A   symmetry.
   522 basis functions,   880 primitive gaussians,   596 cartesian basis functions
   130 alpha electrons      130 beta electrons
       nuclear repulsion energy      4841.2584795095 Hartrees.
 IExCor= 1009 DFT=T Ex=PBE Corr=PBE ExCW=0 ScaHFX=  0.000000
 ScaDFX=  1.000000  1.000000  1.000000  1.000000 ScalE2=  1.000000  1.000000
 IRadAn=      0 IRanWt=     -1 IRanGd=            0 ICorTp=0 IEmpDi=  4
 NAtoms=    9 NActive=    9 NUniq=    9 SFac= 1.00D+00 NAtFMM=   60 NAOKFM=F Big=F
 Integral buffers will be    131072 words long.
 Raffenetti 2 integral format.
 Two-electron integral symmetry is turned on.
 ------------------------------------------------------------------------------
 Polarizable Continuum Model (PCM)
 =================================
 Model                : PCM (using non-symmetric T matrix).
 Atomic radii         : UFF (Universal Force Field).
 Polarization charges : Total charges.
 Charge compensation  : None.
 Solution method      : On-the-fly selection.
 Cavity type          : Scaled VdW (van der Waals Surface) (Alpha=1.100).
 Cavity algorithm     : GePol (No added spheres)
                        Default sphere list used, NSphG=    9.
                        Lebedev-Laikov grids with approx.  5.0 points / Ang**2.
                        Smoothing algorithm: Karplus/York (Gamma=1.0000).
                        Polarization charges: spherical gaussians, with
                                              point-specific exponents (IZeta= 3).
                        Self-potential: point-specific (ISelfS= 7).
                        Self-field    : sphere-specific E.n sum rule (ISelfD= 2).
 Solvent              : Water, Eps=  78.355300 Eps(inf)=   1.777849
 ------------------------------------------------------------------------------
 Spheres list:
 ISph  on   Nord     Re0    Alpha      Xe            Ye            Ze
    1  Pt      1    1.3770  1.100     -0.001541     -0.109745     -0.193786
    2  Br      2    2.0945  1.100      0.048225     -0.344644      2.326916
    3  Br      3    2.0945  1.100     -0.045516      2.459096      0.054750
    4  Br      4    2.0945  1.100      2.542763     -0.070936     -0.278011
    5  Br      5    2.0945  1.100     -2.545566     -0.159492     -0.113706
    6  Cl      6    1.9735  1.100     -0.047122      0.150998     -2.582161
    7   N      7    1.8300  1.100      0.032771     -2.207226     -0.418227
    8   O      8    1.7500  1.100      0.777173     -2.853487      0.294242
    9   O      9    1.7500  1.100     -0.690272     -2.708657     -1.257812
 ------------------------------------------------------------------------------
 GePol: Number of generator spheres                  =       9
 GePol: Total number of spheres                      =       9
 GePol: Number of exposed spheres                    =       8 ( 88.89%)
 GePol: Number of points                             =    1682
 GePol: Average weight of points                     =       0.15
 GePol: Minimum weight of points                     =   0.92D-08
 GePol: Maximum weight of points                     =    0.21616
 GePol: Number of points with low weight             =      21
 GePol: Fraction of low-weight points (<1% of avg)   =       1.25%
 GePol: Cavity surface area                          =    246.729 Ang**2
 GePol: Cavity volume                                =    267.163 Ang**3
 Leave Link  301 at Sat Oct 30 03:58:41 2021, MaxMem=  2013265920 cpu:         0.8
 (Enter /scr/programas/g09/l302.exe)
 NPDir=0 NMtPBC=     1 NCelOv=     1 NCel=       1 NClECP=     1 NCelD=      1
         NCelK=      1 NCelE2=     1 NClLst=     1 CellRange=     0.0.
 One-electron integrals computed using PRISM.
 NBasis=   522 RedAO= T EigKep=  8.44D-05  NBF=   522
 NBsUse=   522 1.00D-06 EigRej= -1.00D+00 NBFU=   522
 Precomputing XC quadrature grid using
 IXCGrd= 4 IRadAn=           0 IRanWt=          -1 IRanGd=           0 AccXCQ= 0.00D+00.
 Defaulting to unpruned grid for atomic number  78.
 Generated NRdTot=       0 NPtTot=           0 NUsed=           0 NTot=          32
 NSgBfM=   533   533   533   533   533 MxSgAt=     9 MxSgA2=     9.
 Leave Link  302 at Sat Oct 30 03:58:42 2021, MaxMem=  2013265920 cpu:         3.5
 (Enter /scr/programas/g09/l308.exe)
 Leave Link  308 at Sat Oct 30 03:58:42 2021, MaxMem=  2013265920 cpu:         0.6
 (Enter /scr/programas/g09/l303.exe)
 DipDrv:  MaxL=1.
 Leave Link  303 at Sat Oct 30 03:58:42 2021, MaxMem=  2013265920 cpu:         0.4
 (Enter /scr/programas/g09/l401.exe)
 ExpMin= 2.28D-02 ExpMax= 2.16D+06 ExpMxC= 2.16D+06 IAcc=4 IRadAn=    199590 AccDes= 0.00D+00
 Harris functional with IExCor= 1009 and IRadAn=  199590 diagonalized for initial guess.
 HarFok:  IExCor= 1009 AccDes= 0.00D+00 IRadAn=    199590 IDoV= 1 UseB2=F ITyADJ=14
 ICtDFT=  3500011 ScaDFX=  1.000000  1.000000  1.000000  1.000000
 FoFCou: FMM=F IPFlag=           0 FMFlag=      100000 FMFlg1=           0
         NFxFlg=           0 DoJE=T BraDBF=F KetDBF=T FulRan=T
         wScrn=  0.000000 ICntrl=     500 IOpCl=  0 I1Cent=   200000004 NGrid=           0
         NMat0=    1 NMatS0=      1 NMatT0=    0 NMatD0=    1 NMtDS0=    0 NMtDT0=    0
 Petite list used in FoFCou.
 Harris En= -28061.5646882600    
 JPrj=0 DoOrth=F DoCkMO=F.
 Leave Link  401 at Sat Oct 30 03:58:58 2021, MaxMem=  2013265920 cpu:        62.6
 (Enter /scr/programas/g09/l502.exe)
 Closed shell SCF:
 Using DIIS extrapolation, IDIIS=  1040.
 Integral symmetry usage will be decided dynamically.
 IVT=     1116064 IEndB=     1116064 NGot=  2013265920 MDV=  2012546069
 LenX=  2012546069 LenY=  2012190257
 Requested convergence on RMS density matrix=1.00D-08 within 200 cycles.
 Requested convergence on MAX density matrix=1.00D-06.
 Requested convergence on             energy=1.00D-06.
 No special actions if energy rises.
 Fock matrices will be formed incrementally for  20 cycles.

 Cycle   1  Pass 1  IDiag  1:
 FoFJK:  IHMeth= 1 ICntrl=     500 DoSepK=F KAlg= 0 I1Cent=   0 FoldK=F
 IRaf= 740000000 NMat=   1 IRICut=       1 DoRegI=T DoRafI=F ISym2E= 0.
 FoFCou: FMM=F IPFlag=           0 FMFlag=      100000 FMFlg1=           0
         NFxFlg=           0 DoJE=T BraDBF=F KetDBF=F FulRan=T
         wScrn=  0.000000 ICntrl=     500 IOpCl=  0 I1Cent=           0 NGrid=           0
         NMat0=    1 NMatS0=      1 NMatT0=    0 NMatD0=    1 NMtDS0=    0 NMtDT0=    0
 Symmetry not used in FoFCou.
 Defaulting to unpruned grid for atomic number  78.
 Defaulting to unpruned grid for atomic number  78.
 Defaulting to unpruned grid for atomic number  78.
 Defaulting to unpruned grid for atomic number  78.
 Inv3:  Mode=1 IEnd=     8487372.
 Iteration    1 A*A^-1 deviation from unit magnitude is 7.44D-15 for   1512.
 Iteration    1 A*A^-1 deviation from orthogonality  is 2.42D-15 for   1649    616.
 Iteration    1 A^-1*A deviation from unit magnitude is 7.22D-15 for   1512.
 Iteration    1 A^-1*A deviation from orthogonality  is 1.47D-15 for   1189   1178.
 E= -28042.6460529522    
 DIIS: error= 4.79D-01 at cycle   1 NSaved=   1.
 NSaved= 1 IEnMin= 1 EnMin= -28042.6460529522     IErMin= 1 ErrMin= 4.79D-01
 ErrMax= 4.79D-01  0.00D+00 EMaxC= 1.00D-01 BMatC= 3.24D+02 BMatP= 3.24D+02
 IDIUse=3 WtCom= 0.00D+00 WtEn= 1.00D+00
 Coeff-Com:  0.100D+01
 Coeff-En:   0.100D+01
 Coeff:      0.100D+01
 Gap=     0.190 Goal=   None    Shift=    0.000
 GapD=    0.190 DampG=1.000 DampE=0.125 DampFc=0.1250 IDamp=-1.
 Damping current iteration by 1.25D-01
 RMSDP=1.24D-02 MaxDP=1.47D+00              OVMax= 8.61D-01

 Cycle   2  Pass 1  IDiag  1:
 RMSU=  1.54D-03    CP:  1.01D+00
 E= -28044.0723851338     Delta-E=       -1.426332181567 Rises=F Damp=T
 DIIS: error= 4.17D-01 at cycle   2 NSaved=   2.
 NSaved= 2 IEnMin= 2 EnMin= -28044.0723851338     IErMin= 2 ErrMin= 4.17D-01
 ErrMax= 4.17D-01  0.00D+00 EMaxC= 1.00D-01 BMatC= 2.31D+02 BMatP= 3.24D+02
 IDIUse=3 WtCom= 0.00D+00 WtEn= 1.00D+00
 Coeff-Com: -0.480D+01 0.580D+01
 Coeff-En:   0.000D+00 0.100D+01
 Coeff:      0.000D+00 0.100D+01
 Gap=    -0.053 Goal=   None    Shift=    0.000
 RMSDP=5.43D-03 MaxDP=4.30D-01 DE=-1.43D+00 OVMax= 9.51D-01

 Cycle   3  Pass 1  IDiag  1:
 RMSU=  3.97D-03    CP:  1.04D+00  3.00D+00
 E= -28040.8799583269     Delta-E=        3.192426806825 Rises=F Damp=F
 DIIS: error= 1.60D-01 at cycle   3 NSaved=   3.
 NSaved= 3 IEnMin= 2 EnMin= -28044.0723851338     IErMin= 3 ErrMin= 1.60D-01
 ErrMax= 1.60D-01  0.00D+00 EMaxC= 1.00D-01 BMatC= 3.06D+01 BMatP= 2.31D+02
 IDIUse=3 WtCom= 0.00D+00 WtEn= 1.00D+00
 EnCoef did   100 forward-backward iterations
 Coeff-Com:  0.993D+00-0.932D+00 0.938D+00
 Coeff-En:   0.528D+00 0.337D-01 0.438D+00
 Coeff:      0.528D+00 0.337D-01 0.438D+00
 Gap=    -0.001 Goal=   None    Shift=    0.000
 RMSDP=5.90D-03 MaxDP=5.88D-01 DE= 3.19D+00 OVMax= 7.51D-01

 Cycle   4  Pass 1  IDiag  1:
 RMSU=  2.94D-03    CP:  1.01D+00  6.52D-01  2.75D-01
 E= -28047.3945624520     Delta-E=       -6.514604125041 Rises=F Damp=F
 DIIS: error= 3.50D-02 at cycle   4 NSaved=   4.
 NSaved= 4 IEnMin= 4 EnMin= -28047.3945624520     IErMin= 4 ErrMin= 3.50D-02
 ErrMax= 3.50D-02  0.00D+00 EMaxC= 1.00D-01 BMatC= 1.94D+00 BMatP= 3.06D+01
 IDIUse=3 WtCom= 6.50D-01 WtEn= 3.50D-01
 Coeff-Com:  0.188D+00-0.155D+00 0.405D-01 0.927D+00
 Coeff-En:   0.000D+00 0.000D+00 0.489D-01 0.951D+00
 Coeff:      0.122D+00-0.101D+00 0.434D-01 0.935D+00
 Gap=     0.203 Goal=   None    Shift=    0.000
 RMSDP=5.68D-03 MaxDP=5.26D-01 DE=-6.51D+00 OVMax= 9.75D-01

 Cycle   5  Pass 1  IDiag  1:
 RMSU=  3.50D-03    CP:  1.00D+00  2.21D+00  6.64D-01 -1.72D-01
 E= -28041.3121377549     Delta-E=        6.082424697059 Rises=F Damp=F
 DIIS: error= 5.75D-02 at cycle   5 NSaved=   5.
 NSaved= 5 IEnMin= 4 EnMin= -28047.3945624520     IErMin= 4 ErrMin= 3.50D-02
 ErrMax= 5.75D-02  0.00D+00 EMaxC= 1.00D-01 BMatC= 5.24D+00 BMatP= 1.94D+00
 IDIUse=2 WtCom= 0.00D+00 WtEn= 1.00D+00
 Coeff-En:   0.000D+00 0.000D+00 0.000D+00 0.835D+00 0.165D+00
 Coeff:      0.000D+00 0.000D+00 0.000D+00 0.835D+00 0.165D+00
 Gap=    -0.060 Goal=   None    Shift=    0.000
 RMSDP=3.72D-03 MaxDP=3.43D-01 DE= 6.08D+00 OVMax= 7.29D-01

 Cycle   6  Pass 1  IDiag  1:
 RMSU=  2.50D-03    CP:  1.00D+00  1.31D+00  5.32D-01  1.05D-01  3.78D-01
 E= -28045.6956068459     Delta-E=       -4.383469090972 Rises=F Damp=F
 DIIS: error= 3.57D-02 at cycle   6 NSaved=   6.
 NSaved= 6 IEnMin= 4 EnMin= -28047.3945624520     IErMin= 4 ErrMin= 3.50D-02
 ErrMax= 3.57D-02  0.00D+00 EMaxC= 1.00D-01 BMatC= 1.84D+00 BMatP= 1.94D+00
 IDIUse=3 WtCom= 6.43D-01 WtEn= 3.57D-01
 EnCoef did     5 forward-backward iterations
 Coeff-Com: -0.337D-01 0.636D-01-0.427D-01 0.600D+00 0.989D-01 0.314D+00
 Coeff-En:   0.000D+00 0.000D+00 0.000D+00 0.718D+00 0.359D-01 0.246D+00
 Coeff:     -0.217D-01 0.409D-01-0.274D-01 0.642D+00 0.764D-01 0.290D+00
 Gap=     0.067 Goal=   None    Shift=    0.000
 RMSDP=3.02D-03 MaxDP=2.26D-01 DE=-4.38D+00 OVMax= 5.89D-01

 Cycle   7  Pass 1  IDiag  1:
 RMSU=  1.49D-03    CP:  1.01D+00  1.11D+00  3.71D-01  4.90D-01  1.43D-01
                    CP:  1.63D-01
 E= -28047.8237994175     Delta-E=       -2.128192571654 Rises=F Damp=F
 DIIS: error= 1.16D-02 at cycle   7 NSaved=   7.
 NSaved= 7 IEnMin= 7 EnMin= -28047.8237994175     IErMin= 7 ErrMin= 1.16D-02
 ErrMax= 1.16D-02  0.00D+00 EMaxC= 1.00D-01 BMatC= 2.50D-01 BMatP= 1.84D+00
 IDIUse=3 WtCom= 8.84D-01 WtEn= 1.16D-01
 EnCoef did     6 forward-backward iterations
 Coeff-Com:  0.130D+00-0.140D+00-0.363D-02 0.296D+00 0.176D-01 0.215D+00
 Coeff-Com:  0.485D+00
 Coeff-En:   0.000D+00 0.000D+00 0.000D+00 0.177D+00 0.000D+00 0.136D+00
 Coeff-En:   0.687D+00
 Coeff:      0.115D+00-0.123D+00-0.321D-02 0.282D+00 0.156D-01 0.206D+00
 Coeff:      0.508D+00
 Gap=     0.049 Goal=   None    Shift=    0.000
 RMSDP=1.46D-03 MaxDP=9.42D-02 DE=-2.13D+00 OVMax= 2.51D-01

 Cycle   8  Pass 1  IDiag  1:
 RMSU=  1.12D-03    CP:  1.01D+00  7.87D-01  3.27D-01  4.27D-01  1.17D-01
                    CP:  1.90D-01  4.93D-01
 E= -28047.8761289536     Delta-E=       -0.052329536113 Rises=F Damp=F
 DIIS: error= 1.59D-02 at cycle   8 NSaved=   8.
 NSaved= 8 IEnMin= 8 EnMin= -28047.8761289536     IErMin= 7 ErrMin= 1.16D-02
 ErrMax= 1.59D-02  0.00D+00 EMaxC= 1.00D-01 BMatC= 2.52D-01 BMatP= 2.50D-01
 IDIUse=3 WtCom= 8.84D-01 WtEn= 1.16D-01
 EnCoef did     2 forward-backward iterations
 Coeff-Com: -0.432D-01 0.511D-01 0.532D-02 0.579D-01-0.262D-01 0.136D+00
 Coeff-Com:  0.395D+00 0.424D+00
 Coeff-En:   0.000D+00 0.000D+00 0.000D+00 0.000D+00 0.000D+00 0.265D-02
 Coeff-En:   0.453D+00 0.544D+00
 Coeff:     -0.382D-01 0.452D-01 0.470D-02 0.511D-01-0.231D-01 0.120D+00
 Coeff:      0.402D+00 0.438D+00
 Gap=     0.050 Goal=   None    Shift=    0.000
 RMSDP=7.01D-04 MaxDP=4.43D-02 DE=-5.23D-02 OVMax= 1.71D-01

 Cycle   9  Pass 1  IDiag  1:
 RMSU=  4.34D-04    CP:  1.01D+00  9.58D-01  3.64D-01  4.26D-01  1.26D-01
                    CP:  2.51D-01  6.70D-01  6.94D-01
 E= -28048.0466757671     Delta-E=       -0.170546813497 Rises=F Damp=F
 DIIS: error= 4.68D-03 at cycle   9 NSaved=   9.
 NSaved= 9 IEnMin= 9 EnMin= -28048.0466757671     IErMin= 9 ErrMin= 4.68D-03
 ErrMax= 4.68D-03  0.00D+00 EMaxC= 1.00D-01 BMatC= 2.21D-02 BMatP= 2.50D-01
 IDIUse=3 WtCom= 9.53D-01 WtEn= 4.68D-02
 Coeff-Com: -0.562D-01 0.646D-01-0.300D-02 0.889D-02-0.111D-01 0.485D-01
 Coeff-Com:  0.168D+00 0.290D+00 0.491D+00
 Coeff-En:   0.000D+00 0.000D+00 0.000D+00 0.000D+00 0.000D+00 0.000D+00
 Coeff-En:   0.000D+00 0.767D-01 0.923D+00
 Coeff:     -0.535D-01 0.616D-01-0.286D-02 0.847D-02-0.105D-01 0.462D-01
 Coeff:      0.160D+00 0.280D+00 0.511D+00
 Gap=     0.064 Goal=   None    Shift=    0.000
 RMSDP=2.83D-04 MaxDP=1.58D-02 DE=-1.71D-01 OVMax= 5.45D-02

 Cycle  10  Pass 1  IDiag  1:
 RMSU=  2.37D-04    CP:  1.01D+00  9.75D-01  3.57D-01  4.36D-01  1.26D-01
                    CP:  2.50D-01  6.86D-01  5.90D-01  8.00D-01
 E= -28048.0519646535     Delta-E=       -0.005288886379 Rises=F Damp=F
 DIIS: error= 5.41D-03 at cycle  10 NSaved=  10.
 NSaved=10 IEnMin=10 EnMin= -28048.0519646535     IErMin= 9 ErrMin= 4.68D-03
 ErrMax= 5.41D-03  0.00D+00 EMaxC= 1.00D-01 BMatC= 1.16D-02 BMatP= 2.21D-02
 IDIUse=3 WtCom= 9.53D-01 WtEn= 4.68D-02
 EnCoef did     2 forward-backward iterations
 Coeff-Com: -0.179D-01 0.204D-01-0.220D-02 0.932D-03-0.843D-03 0.115D-01
 Coeff-Com:  0.497D-01 0.156D+00 0.394D+00 0.388D+00
 Coeff-En:   0.000D+00 0.000D+00 0.000D+00 0.000D+00 0.000D+00 0.000D+00
 Coeff-En:   0.000D+00 0.522D-02 0.393D+00 0.602D+00
 Coeff:     -0.171D-01 0.194D-01-0.209D-02 0.888D-03-0.803D-03 0.110D-01
 Coeff:      0.474D-01 0.149D+00 0.394D+00 0.398D+00
 Gap=     0.059 Goal=   None    Shift=    0.000
 RMSDP=1.91D-04 MaxDP=9.89D-03 DE=-5.29D-03 OVMax= 5.95D-02

 Cycle  11  Pass 1  IDiag  1:
 RMSU=  1.30D-04    CP:  1.01D+00  9.57D-01  3.55D-01  4.27D-01  1.26D-01
                    CP:  2.56D-01  6.61D-01  6.43D-01  8.75D-01  5.43D-01
 E= -28048.0567403878     Delta-E=       -0.004775734262 Rises=F Damp=F
 DIIS: error= 5.10D-03 at cycle  11 NSaved=  11.
 NSaved=11 IEnMin=11 EnMin= -28048.0567403878     IErMin= 9 ErrMin= 4.68D-03
 ErrMax= 5.10D-03  0.00D+00 EMaxC= 1.00D-01 BMatC= 5.45D-03 BMatP= 1.16D-02
 IDIUse=3 WtCom= 9.53D-01 WtEn= 4.68D-02
 EnCoef did     3 forward-backward iterations
 Coeff-Com: -0.531D-02 0.589D-02-0.632D-03-0.185D-02 0.135D-02 0.107D-02
 Coeff-Com:  0.176D-01 0.922D-01 0.249D+00 0.352D+00 0.289D+00
 Coeff-En:   0.000D+00 0.000D+00 0.000D+00 0.000D+00 0.000D+00 0.000D+00
 Coeff-En:   0.000D+00 0.000D+00 0.102D-01 0.352D+00 0.638D+00
 Coeff:     -0.506D-02 0.561D-02-0.603D-03-0.177D-02 0.128D-02 0.102D-02
 Coeff:      0.168D-01 0.878D-01 0.238D+00 0.352D+00 0.305D+00
 Gap=     0.058 Goal=   None    Shift=    0.000
 RMSDP=1.05D-04 MaxDP=6.26D-03 DE=-4.78D-03 OVMax= 3.58D-02

 Cycle  12  Pass 1  IDiag  1:
 RMSU=  4.03D-05    CP:  1.01D+00  9.53D-01  3.56D-01  4.24D-01  1.26D-01
                    CP:  2.53D-01  6.58D-01  6.73D-01  8.39D-01  6.19D-01
                    CP:  3.33D-01
 E= -28048.0606646209     Delta-E=       -0.003924233089 Rises=F Damp=F
 DIIS: error= 1.07D-03 at cycle  12 NSaved=  12.
 NSaved=12 IEnMin=12 EnMin= -28048.0606646209     IErMin=12 ErrMin= 1.07D-03
 ErrMax= 1.07D-03  0.00D+00 EMaxC= 1.00D-01 BMatC= 5.46D-04 BMatP= 5.45D-03
 IDIUse=3 WtCom= 9.89D-01 WtEn= 1.07D-02
 Coeff-Com: -0.676D-02 0.766D-02-0.357D-03-0.247D-02 0.754D-03-0.142D-02
 Coeff-Com:  0.783D-02 0.400D-01 0.986D-01 0.169D+00 0.227D+00 0.461D+00
 Coeff-En:   0.000D+00 0.000D+00 0.000D+00 0.000D+00 0.000D+00 0.000D+00
 Coeff-En:   0.000D+00 0.000D+00 0.000D+00 0.000D+00 0.113D+00 0.887D+00
 Coeff:     -0.668D-02 0.758D-02-0.353D-03-0.244D-02 0.746D-03-0.140D-02
 Coeff:      0.775D-02 0.396D-01 0.976D-01 0.167D+00 0.226D+00 0.465D+00
 Gap=     0.058 Goal=   None    Shift=    0.000
 RMSDP=3.53D-05 MaxDP=2.49D-03 DE=-3.92D-03 OVMax= 6.60D-03

 Cycle  13  Pass 1  IDiag  1:
 RMSU=  2.48D-05    CP:  1.01D+00  9.54D-01  3.57D-01  4.25D-01  1.27D-01
                    CP:  2.51D-01  6.64D-01  6.71D-01  8.23D-01  5.70D-01
                    CP:  3.57D-01  5.91D-01
 E= -28048.0610041838     Delta-E=       -0.000339562968 Rises=F Damp=F
 DIIS: error= 1.73D-04 at cycle  13 NSaved=  13.
 NSaved=13 IEnMin=13 EnMin= -28048.0610041838     IErMin=13 ErrMin= 1.73D-04
 ErrMax= 1.73D-04  0.00D+00 EMaxC= 1.00D-01 BMatC= 4.98D-05 BMatP= 5.46D-04
 IDIUse=3 WtCom= 9.98D-01 WtEn= 1.73D-03
 Coeff-Com: -0.325D-02 0.373D-02-0.285D-03-0.243D-03-0.106D-03-0.529D-03
 Coeff-Com:  0.454D-02 0.194D-01 0.480D-01 0.870D-01 0.122D+00 0.271D+00
 Coeff-Com:  0.449D+00
 Coeff-En:   0.000D+00 0.000D+00 0.000D+00 0.000D+00 0.000D+00 0.000D+00
 Coeff-En:   0.000D+00 0.000D+00 0.000D+00 0.000D+00 0.000D+00 0.672D-01
 Coeff-En:   0.933D+00
 Coeff:     -0.324D-02 0.372D-02-0.285D-03-0.243D-03-0.106D-03-0.528D-03
 Coeff:      0.453D-02 0.194D-01 0.479D-01 0.869D-01 0.122D+00 0.270D+00
 Coeff:      0.450D+00
 Gap=     0.058 Goal=   None    Shift=    0.000
 RMSDP=1.87D-05 MaxDP=1.63D-03 DE=-3.40D-04 OVMax= 5.01D-03

 Cycle  14  Pass 1  IDiag  1:
 RMSU=  9.50D-06    CP:  1.01D+00  9.55D-01  3.57D-01  4.27D-01  1.27D-01
                    CP:  2.51D-01  6.64D-01  6.67D-01  8.26D-01  5.77D-01
                    CP:  3.86D-01  6.78D-01  4.65D-01
 E= -28048.0610481585     Delta-E=       -0.000043974680 Rises=F Damp=F
 DIIS: error= 8.80D-05 at cycle  14 NSaved=  14.
 NSaved=14 IEnMin=14 EnMin= -28048.0610481585     IErMin=14 ErrMin= 8.80D-05
 ErrMax= 8.80D-05  0.00D+00 EMaxC= 1.00D-01 BMatC= 1.19D-05 BMatP= 4.98D-05
 IDIUse=1 WtCom= 1.00D+00 WtEn= 0.00D+00
 Coeff-Com:  0.131D-03-0.132D-03-0.859D-04 0.683D-03-0.589D-04-0.412D-03
 Coeff-Com:  0.177D-02 0.724D-02 0.175D-01 0.363D-01 0.531D-01 0.110D+00
 Coeff-Com:  0.270D+00 0.504D+00
 Coeff:      0.131D-03-0.132D-03-0.859D-04 0.683D-03-0.589D-04-0.412D-03
 Coeff:      0.177D-02 0.724D-02 0.175D-01 0.363D-01 0.531D-01 0.110D+00
 Coeff:      0.270D+00 0.504D+00
 Gap=     0.058 Goal=   None    Shift=    0.000
 RMSDP=7.56D-06 MaxDP=6.78D-04 DE=-4.40D-05 OVMax= 1.54D-03

 Cycle  15  Pass 1  IDiag  1:
 RMSU=  3.24D-06    CP:  1.01D+00  9.54D-01  3.56D-01  4.27D-01  1.26D-01
                    CP:  2.51D-01  6.64D-01  6.65D-01  8.22D-01  5.84D-01
                    CP:  3.89D-01  6.34D-01  5.54D-01  5.36D-01
 E= -28048.0610580878     Delta-E=       -0.000009929230 Rises=F Damp=F
 DIIS: error= 2.47D-05 at cycle  15 NSaved=  15.
 NSaved=15 IEnMin=15 EnMin= -28048.0610580878     IErMin=15 ErrMin= 2.47D-05
 ErrMax= 2.47D-05  0.00D+00 EMaxC= 1.00D-01 BMatC= 8.30D-07 BMatP= 1.19D-05
 IDIUse=1 WtCom= 1.00D+00 WtEn= 0.00D+00
 Coeff-Com: -0.176D-04 0.271D-04-0.320D-04 0.221D-03-0.808D-05-0.170D-03
 Coeff-Com:  0.638D-03 0.178D-02 0.393D-02 0.781D-02 0.137D-01 0.311D-01
 Coeff-Com:  0.723D-01 0.255D+00 0.614D+00
 Coeff:     -0.176D-04 0.271D-04-0.320D-04 0.221D-03-0.808D-05-0.170D-03
 Coeff:      0.638D-03 0.178D-02 0.393D-02 0.781D-02 0.137D-01 0.311D-01
 Coeff:      0.723D-01 0.255D+00 0.614D+00
 Gap=     0.058 Goal=   None    Shift=    0.000
 RMSDP=2.42D-06 MaxDP=1.79D-04 DE=-9.93D-06 OVMax= 4.21D-04

 Cycle  16  Pass 1  IDiag  1:
 RMSU=  1.07D-06    CP:  1.01D+00  9.54D-01  3.56D-01  4.27D-01  1.26D-01
                    CP:  2.51D-01  6.63D-01  6.66D-01  8.24D-01  5.81D-01
                    CP:  3.86D-01  6.34D-01  5.34D-01  6.51D-01  8.03D-01
 E= -28048.0610587091     Delta-E=       -0.000000621374 Rises=F Damp=F
 DIIS: error= 8.69D-06 at cycle  16 NSaved=  16.
 NSaved=16 IEnMin=16 EnMin= -28048.0610587091     IErMin=16 ErrMin= 8.69D-06
 ErrMax= 8.69D-06  0.00D+00 EMaxC= 1.00D-01 BMatC= 9.70D-08 BMatP= 8.30D-07
 IDIUse=1 WtCom= 1.00D+00 WtEn= 0.00D+00
 Coeff-Com:  0.302D-04-0.338D-04-0.122D-04 0.739D-04 0.851D-05-0.548D-04
 Coeff-Com:  0.371D-03 0.429D-03 0.604D-03 0.774D-03 0.261D-02 0.765D-02
 Coeff-Com:  0.158D-01 0.782D-01 0.308D+00 0.585D+00
 Coeff:      0.302D-04-0.338D-04-0.122D-04 0.739D-04 0.851D-05-0.548D-04
 Coeff:      0.371D-03 0.429D-03 0.604D-03 0.774D-03 0.261D-02 0.765D-02
 Coeff:      0.158D-01 0.782D-01 0.308D+00 0.585D+00
 Gap=     0.058 Goal=   None    Shift=    0.000
 RMSDP=8.91D-07 MaxDP=5.14D-05 DE=-6.21D-07 OVMax= 1.06D-04

 Cycle  17  Pass 1  IDiag  1:
 RMSU=  3.67D-07    CP:  1.01D+00  9.54D-01  3.56D-01  4.27D-01  1.26D-01
                    CP:  2.51D-01  6.63D-01  6.66D-01  8.23D-01  5.81D-01
                    CP:  3.87D-01  6.37D-01  5.38D-01  6.45D-01  8.16D-01
                    CP:  5.67D-01
 E= -28048.0610587756     Delta-E=       -0.000000066451 Rises=F Damp=F
 DIIS: error= 3.72D-06 at cycle  17 NSaved=  17.
 NSaved=17 IEnMin=17 EnMin= -28048.0610587756     IErMin=17 ErrMin= 3.72D-06
 ErrMax= 3.72D-06  0.00D+00 EMaxC= 1.00D-01 BMatC= 1.66D-08 BMatP= 9.70D-08
 IDIUse=1 WtCom= 1.00D+00 WtEn= 0.00D+00
 Coeff-Com:  0.237D-04-0.272D-04-0.468D-05 0.274D-04 0.454D-05-0.141D-04
 Coeff-Com:  0.168D-03 0.441D-04-0.127D-03-0.641D-03-0.280D-03 0.534D-03
 Coeff-Com: -0.156D-02 0.132D-01 0.126D+00 0.338D+00 0.525D+00
 Coeff:      0.237D-04-0.272D-04-0.468D-05 0.274D-04 0.454D-05-0.141D-04
 Coeff:      0.168D-03 0.441D-04-0.127D-03-0.641D-03-0.280D-03 0.534D-03
 Coeff:     -0.156D-02 0.132D-01 0.126D+00 0.338D+00 0.525D+00
 Gap=     0.058 Goal=   None    Shift=    0.000
 RMSDP=3.59D-07 MaxDP=3.17D-05 DE=-6.65D-08 OVMax= 7.55D-05

 Cycle  18  Pass 1  IDiag  1:
 RMSU=  1.93D-07    CP:  1.01D+00  9.54D-01  3.56D-01  4.27D-01  1.26D-01
                    CP:  2.51D-01  6.63D-01  6.66D-01  8.23D-01  5.81D-01
                    CP:  3.87D-01  6.37D-01  5.38D-01  6.42D-01  8.29D-01
                    CP:  6.60D-01  3.57D-01
 E= -28048.0610587872     Delta-E=       -0.000000011627 Rises=F Damp=F
 DIIS: error= 2.54D-06 at cycle  18 NSaved=  18.
 NSaved=18 IEnMin=18 EnMin= -28048.0610587872     IErMin=18 ErrMin= 2.54D-06
 ErrMax= 2.54D-06  0.00D+00 EMaxC= 1.00D-01 BMatC= 3.42D-09 BMatP= 1.66D-08
 IDIUse=1 WtCom= 1.00D+00 WtEn= 0.00D+00
 Coeff-Com:  0.111D-04-0.127D-04-0.179D-05 0.117D-04 0.151D-05-0.399D-05
 Coeff-Com:  0.703D-04-0.974D-05-0.134D-03-0.515D-03-0.455D-03-0.399D-03
 Coeff-Com: -0.347D-02-0.143D-03 0.533D-01 0.160D+00 0.369D+00 0.423D+00
 Coeff:      0.111D-04-0.127D-04-0.179D-05 0.117D-04 0.151D-05-0.399D-05
 Coeff:      0.703D-04-0.974D-05-0.134D-03-0.515D-03-0.455D-03-0.399D-03
 Coeff:     -0.347D-02-0.143D-03 0.533D-01 0.160D+00 0.369D+00 0.423D+00
 Gap=     0.058 Goal=   None    Shift=    0.000
 RMSDP=1.67D-07 MaxDP=1.42D-05 DE=-1.16D-08 OVMax= 3.28D-05

 Cycle  19  Pass 1  IDiag  1:
 RMSU=  3.90D-08    CP:  1.01D+00  9.54D-01  3.56D-01  4.27D-01  1.26D-01
                    CP:  2.51D-01  6.63D-01  6.66D-01  8.23D-01  5.81D-01
                    CP:  3.87D-01  6.36D-01  5.38D-01  6.41D-01  8.39D-01
                    CP:  6.41D-01  5.88D-01  4.00D-01
 E= -28048.0610587914     Delta-E=       -0.000000004147 Rises=F Damp=F
 DIIS: error= 4.55D-07 at cycle  19 NSaved=  19.
 NSaved=19 IEnMin=19 EnMin= -28048.0610587914     IErMin=19 ErrMin= 4.55D-07
 ErrMax= 4.55D-07  0.00D+00 EMaxC= 1.00D-01 BMatC= 2.02D-10 BMatP= 3.42D-09
 IDIUse=1 WtCom= 1.00D+00 WtEn= 0.00D+00
 Coeff-Com:  0.853D-06-0.946D-06 0.346D-07 0.130D-05 0.128D-06-0.426D-06
 Coeff-Com:  0.893D-05-0.144D-06-0.259D-04-0.126D-03-0.118D-03-0.889D-04
 Coeff-Com: -0.166D-02-0.210D-02 0.695D-02 0.295D-01 0.112D+00 0.231D+00
 Coeff-Com:  0.624D+00
 Coeff:      0.853D-06-0.946D-06 0.346D-07 0.130D-05 0.128D-06-0.426D-06
 Coeff:      0.893D-05-0.144D-06-0.259D-04-0.126D-03-0.118D-03-0.889D-04
 Coeff:     -0.166D-02-0.210D-02 0.695D-02 0.295D-01 0.112D+00 0.231D+00
 Coeff:      0.624D+00
 Gap=     0.058 Goal=   None    Shift=    0.000
 RMSDP=3.13D-08 MaxDP=2.74D-06 DE=-4.15D-09 OVMax= 5.01D-06

 Cycle  20  Pass 1  IDiag  1:
 RMSU=  1.42D-08    CP:  1.01D+00  9.54D-01  3.56D-01  4.27D-01  1.26D-01
                    CP:  2.51D-01  6.63D-01  6.66D-01  8.23D-01  5.81D-01
                    CP:  3.87D-01  6.36D-01  5.37D-01  6.42D-01  8.36D-01
                    CP:  6.47D-01  5.55D-01  4.74D-01  7.98D-01
 E= -28048.0610587918     Delta-E=       -0.000000000487 Rises=F Damp=F
 DIIS: error= 1.05D-07 at cycle  20 NSaved=  20.
 NSaved=20 IEnMin=20 EnMin= -28048.0610587918     IErMin=20 ErrMin= 1.05D-07
 ErrMax= 1.05D-07  0.00D+00 EMaxC= 1.00D-01 BMatC= 1.64D-11 BMatP= 2.02D-10
 IDIUse=1 WtCom= 1.00D+00 WtEn= 0.00D+00
 Coeff-Com: -0.503D-06 0.600D-06-0.366D-07 0.415D-06-0.330D-07-0.248D-06
 Coeff-Com:  0.339D-05-0.185D-06-0.101D-04-0.496D-04-0.481D-04-0.355D-04
 Coeff-Com: -0.768D-03-0.859D-03 0.271D-02 0.122D-01 0.482D-01 0.110D+00
 Coeff-Com:  0.337D+00 0.491D+00
 Coeff:     -0.503D-06 0.600D-06-0.366D-07 0.415D-06-0.330D-07-0.248D-06
 Coeff:      0.339D-05-0.185D-06-0.101D-04-0.496D-04-0.481D-04-0.355D-04
 Coeff:     -0.768D-03-0.859D-03 0.271D-02 0.122D-01 0.482D-01 0.110D+00
 Coeff:      0.337D+00 0.491D+00
 Gap=     0.058 Goal=   None    Shift=    0.000
 RMSDP=9.78D-09 MaxDP=8.38D-07 DE=-4.87D-10 OVMax= 1.18D-06

 Error on total polarization charges =  0.03679
 SCF Done:  E(RPBE-PBE) =  -28048.0610588     A.U. after   20 cycles
            NFock= 20  Conv=0.98D-08     -V/T= 2.0124
 KE= 2.770461426254D+04 PE=-7.637709958133D+04 EE= 1.578316578049D+04
 Leave Link  502 at Sat Oct 30 04:10:29 2021, MaxMem=  2013265920 cpu:      2753.4
 (Enter /scr/programas/g09/l801.exe)
 Range of M.O.s used for correlation:     1   522
 NBasis=   522 NAE=   130 NBE=   130 NFC=     0 NFV=     0
 NROrb=    522 NOA=   130 NOB=   130 NVA=   392 NVB=   392

 **** Warning!!: The largest alpha MO coefficient is  0.26407538D+02


 **** Warning!!: The smallest alpha delta epsilon is  0.58199439D-01

 Leave Link  801 at Sat Oct 30 04:10:29 2021, MaxMem=  2013265920 cpu:         0.1
 (Enter /scr/programas/g09/l1002.exe)
 Minotr:  Closed shell wavefunction.
 NEqPCM:  Using equilibrium solvation (IEInf=0, Eps=  78.3553, EpsInf=   1.7778)
          Direct CPHF calculation.
          Differentiating once with respect to magnetic field using GIAOs.
          Electric field/nuclear overlap derivatives assumed to be zero.
          Requested convergence is 1.0D-08 RMS, and 1.0D-07 maximum.
          Secondary convergence is 1.0D-12 RMS, and 1.0D-12 maximum.
          NewPWx=T KeepS1=F KeepF1=F KeepIn=T MapXYZ=F SortEE=F KeepMc=T.
          MDV=    2013265322 using IRadAn=       2.
 Defaulting to unpruned grid for atomic number  78.
 Generate precomputed XC quadrature information.
          Solving linear equations simultaneously, MaxMat=       0.
 FoFJK:  IHMeth= 1 ICntrl=    6127 DoSepK=F KAlg= 0 I1Cent=   0 FoldK=F
 IRaf=         1 NMat=   1 IRICut=       1 DoRegI=T DoRafI=F ISym2E= 0.
 Defaulting to unpruned grid for atomic number  78.
 Defaulting to unpruned grid for atomic number  78.
 Defaulting to unpruned grid for atomic number  78.
 Defaulting to unpruned grid for atomic number  78.
          There are     3 degrees of freedom in the 1st order CPHF.  IDoFFX=0 NUNeed=     3.
      3 vectors produced by pass  0 Test12= 1.70D-12 3.33D-08 XBig12= 3.20D+01 3.11D+00.
 AX will form     3 AO Fock derivatives at one time.
 InvSVY:  IOpt=1 It=  1 EMax= 0.00D+00
 Solved reduced A of dimension     3 with     3 vectors.
 Calculating GIAO nuclear magnetic shielding tensors.
 SCF GIAO Magnetic shielding tensor (ppm):
      1  Pt   Isotropic =   146.3426   Anisotropy =  1259.2733
   XX=  -538.5686   YX=   -12.7449   ZX=  -228.9716
   XY=   -24.2620   YY=   974.2429   ZY=    95.9941
   XZ=  -278.3061   YZ=   104.8335   ZZ=     3.3535
   Eigenvalues:  -639.0000    92.1696   985.8581
      2  Br   Isotropic =  1652.5764   Anisotropy =  1924.9888
   XX=   502.0428   YX=  -290.4335   ZX=     5.5262
   XY=  -179.5176   YY=  1534.5638   ZY=  -234.8120
   XZ=   112.9350   YZ=   -24.9626   ZZ=  2921.1225
   Eigenvalues:   450.7078  1571.1191  2935.9022
      3  Br   Isotropic =  2269.5277   Anisotropy =   996.4883
   XX=  1925.2686   YX=   -17.6597   ZX=    10.0454
   XY=    -6.4701   YY=  2930.9029   ZY=    80.9350
   XZ=     4.3803   YZ=    24.1922   ZZ=  1952.4117
   Eigenvalues:  1922.8328  1951.8971  2933.8533
      4  Br   Isotropic =  1426.2878   Anisotropy =  2283.8479
   XX=  2946.2168   YX=    96.8161   ZX=    19.2823
   XY=   -29.8788   YY=  1023.8526   ZY=   -92.6636
   XZ=  -160.8772   YZ=  -215.3298   ZZ=   308.7941
   Eigenvalues:   275.5713  1054.4391  2948.8531
      5  Br   Isotropic =  1430.2765   Anisotropy =  2293.6950
   XX=  2958.7572   YX=   -47.8821   ZX=   -12.5074
   XY=   113.2450   YY=   927.2195   ZY=   200.8367
   XZ=   -31.3142   YZ=   328.4606   ZZ=   404.8528
   Eigenvalues:   293.8044  1037.6186  2959.4065
      6  Cl   Isotropic =   602.8346   Anisotropy =   692.7262
   XX=   159.0934   YX=   112.5928   ZX=    18.5444
   XY=    49.2792   YY=   591.3154   ZY=    -6.4500
   XZ=    62.6039   YZ=   -94.7995   ZZ=  1058.0952
   Eigenvalues:   141.8089   602.0429  1064.6521
      7  N    Isotropic =  -182.9486   Anisotropy =   258.3079
   XX=  -153.5386   YX=    18.3482   ZX=  -150.3548
   XY=    18.4742   YY=  -225.9102   ZY=    -7.7461
   XZ=  -147.3036   YZ=    -8.7326   ZZ=  -169.3970
   Eigenvalues:  -311.0412  -227.0613   -10.7433
      8  O    Isotropic =  -397.1635   Anisotropy =   419.8816
   XX=  -380.6317   YX=   -23.5834   ZX=  -290.3884
   XY=   117.0752   YY=  -395.3904   ZY=    93.7637
   XZ=  -266.5994   YZ=   -58.6286   ZZ=  -415.4685
   Eigenvalues:  -684.0647  -390.1835  -117.2425
      9  O    Isotropic =  -392.3851   Anisotropy =   421.1565
   XX=  -369.4811   YX=    84.0387   ZX=  -274.8081
   XY=   -58.7938   YY=  -388.7287   ZY=   -90.5893
   XZ=  -285.3905   YZ=    59.6170   ZZ=  -418.9456
   Eigenvalues:  -675.4318  -390.1095  -111.6141
 End of Minotr F.D. properties file   721 does not exist.
 End of Minotr F.D. properties file   722 does not exist.
 End of Minotr F.D. properties file   788 does not exist.
 Leave Link 1002 at Sat Oct 30 04:18:18 2021, MaxMem=  2013265920 cpu:      1862.7
 (Enter /scr/programas/g09/l601.exe)
 Copying SCF densities to generalized density rwf, IOpCl= 0 IROHF=0.

 **********************************************************************

            Population analysis using the SCF density.

 **********************************************************************

 Orbital symmetries:
       Occupied  (A) (A) (A) (A) (A) (A) (A) (A) (A) (A) (A) (A)
                 (A) (A) (A) (A) (A) (A) (A) (A) (A) (A) (A) (A)
                 (A) (A) (A) (A) (A) (A) (A) (A) (A) (A) (A) (A)
                 (A) (A) (A) (A) (A) (A) (A) (A) (A) (A) (A) (A)
                 (A) (A) (A) (A) (A) (A) (A) (A) (A) (A) (A) (A)
                 (A) (A) (A) (A) (A) (A) (A) (A) (A) (A) (A) (A)
                 (A) (A) (A) (A) (A) (A) (A) (A) (A) (A) (A) (A)
                 (A) (A) (A) (A) (A) (A) (A) (A) (A) (A) (A) (A)
                 (A) (A) (A) (A) (A) (A) (A) (A) (A) (A) (A) (A)
                 (A) (A) (A) (A) (A) (A) (A) (A) (A) (A) (A) (A)
                 (A) (A) (A) (A) (A) (A) (A) (A) (A) (A)
       Virtual   (A) (A) (A) (A) (A) (A) (A) (A) (A) (A) (A) (A)
                 (A) (A) (A) (A) (A) (A) (A) (A) (A) (A) (A) (A)
                 (A) (A) (A) (A) (A) (A) (A) (A) (A) (A) (A) (A)
                 (A) (A) (A) (A) (A) (A) (A) (A) (A) (A) (A) (A)
                 (A) (A) (A) (A) (A) (A) (A) (A) (A) (A) (A) (A)
                 (A) (A) (A) (A) (A) (A) (A) (A) (A) (A) (A) (A)
                 (A) (A) (A) (A) (A) (A) (A) (A) (A) (A) (A) (A)
                 (A) (A) (A) (A) (A) (A) (A) (A) (A) (A) (A) (A)
                 (A) (A) (A) (A) (A) (A) (A) (A) (A) (A) (A) (A)
                 (A) (A) (A) (A) (A) (A) (A) (A) (A) (A) (A) (A)
                 (A) (A) (A) (A) (A) (A) (A) (A) (A) (A) (A) (A)
                 (A) (A) (A) (A) (A) (A) (A) (A) (A) (A) (A) (A)
                 (A) (A) (A) (A) (A) (A) (A) (A) (A) (A) (A) (A)
                 (A) (A) (A) (A) (A) (A) (A) (A) (A) (A) (A) (A)
                 (A) (A) (A) (A) (A) (A) (A) (A) (A) (A) (A) (A)
                 (A) (A) (A) (A) (A) (A) (A) (A) (A) (A) (A) (A)
                 (A) (A) (A) (A) (A) (A) (A) (A) (A) (A) (A) (A)
                 (A) (A) (A) (A) (A) (A) (A) (A) (A) (A) (A) (A)
                 (A) (A) (A) (A) (A) (A) (A) (A) (A) (A) (A) (A)
                 (A) (A) (A) (A) (A) (A) (A) (A) (A) (A) (A) (A)
                 (A) (A) (A) (A) (A) (A) (A) (A) (A) (A) (A) (A)
                 (A) (A) (A) (A) (A) (A) (A) (A) (A) (A) (A) (A)
                 (A) (A) (A) (A) (A) (A) (A) (A) (A) (A) (A) (A)
                 (A) (A) (A) (A) (A) (A) (A) (A) (A) (A) (A) (A)
                 (A) (A) (A) (A) (A) (A) (A) (A) (A) (A) (A) (A)
                 (A) (A) (A) (A) (A) (A) (A) (A) (A) (A) (A) (A)
                 (A) (A) (A) (A) (A) (A) (A) (A) (A) (A) (A) (A)
                 (A) (A) (A) (A) (A) (A) (A) (A) (A) (A) (A) (A)
                 (A) (A) (A) (A) (A) (A) (A) (A) (A) (A) (A) (A)
                 (A) (A) (A) (A) (A) (A) (A) (A) (A) (A) (A) (A)
                 (A) (A) (A) (A) (A) (A) (A) (A) (A) (A) (A) (A)
                 (A) (A) (A) (A) (A) (A) (A) (A) (A) (A) (A) (A)
                 (A) (A) (A) (A) (A) (A) (A) (A)
 The electronic state is 1-A.
 Alpha  occ. eigenvalues -- **********-478.58701-478.58575-478.58563-478.57494
 Alpha  occ. eigenvalues -- -427.60353-414.93263-414.93256-414.93252-100.53759
 Alpha  occ. eigenvalues --  -99.98365 -92.14028 -92.14022 -92.14012 -79.09965
 Alpha  occ. eigenvalues --  -79.09952 -79.09813 -79.09799 -79.09796 -61.50525
 Alpha  occ. eigenvalues --  -61.50401 -61.50389 -61.49328 -55.69029 -55.68899
 Alpha  occ. eigenvalues --  -55.68887 -55.68706 -55.68702 -55.68585 -55.68581
 Alpha  occ. eigenvalues --  -55.68572 -55.68569 -55.67791 -55.67526 -55.67525
 Alpha  occ. eigenvalues --  -20.89805 -18.79585 -18.79557 -17.46257 -17.46243
 Alpha  occ. eigenvalues --  -17.46224 -14.19117 -11.64734 -11.64695 -11.64188
 Alpha  occ. eigenvalues --  -11.64143 -11.64141  -9.11580  -8.33366  -8.33241
 Alpha  occ. eigenvalues --   -8.33229  -8.32170  -6.95533  -6.94695  -6.94684
 Alpha  occ. eigenvalues --   -6.24294  -6.24155  -6.24142  -6.23361  -6.23351
 Alpha  occ. eigenvalues --   -6.23243  -6.23233  -6.23231  -6.23221  -6.22986
 Alpha  occ. eigenvalues --   -6.22217  -6.22215  -3.19527  -3.19499  -3.19493
 Alpha  occ. eigenvalues --   -3.19218  -3.19202  -3.19179  -3.18812  -2.92454
 Alpha  occ. eigenvalues --   -2.45210  -2.45074  -2.45061  -2.44976  -2.44968
 Alpha  occ. eigenvalues --   -2.44845  -2.44838  -2.44832  -2.44825  -2.44282
 Alpha  occ. eigenvalues --   -2.44282  -2.44168  -2.44168  -2.44156  -2.44156
 Alpha  occ. eigenvalues --   -2.43931  -2.43736  -2.43735  -2.43170  -2.43169
 Alpha  occ. eigenvalues --   -1.86400  -1.86357  -1.86295  -1.13836  -0.97562
 Alpha  occ. eigenvalues --   -0.69136  -0.66608  -0.65762  -0.65628  -0.64844
 Alpha  occ. eigenvalues --   -0.58310  -0.48513  -0.47642  -0.46409  -0.37225
 Alpha  occ. eigenvalues --   -0.35445  -0.34219  -0.33626  -0.33028  -0.30737
 Alpha  occ. eigenvalues --   -0.28859  -0.28430  -0.28000  -0.24957  -0.24714
 Alpha  occ. eigenvalues --   -0.23574  -0.23297  -0.23132  -0.22938  -0.22859
 Alpha  occ. eigenvalues --   -0.22704  -0.22341  -0.21420  -0.21236  -0.21203
 Alpha virt. eigenvalues --   -0.15383  -0.13847  -0.09534  -0.00824   0.00443
 Alpha virt. eigenvalues --    0.00698   0.01115   0.02782   0.02822   0.02874
 Alpha virt. eigenvalues --    0.03061   0.03293   0.04981   0.05007   0.05441
 Alpha virt. eigenvalues --    0.05789   0.05821   0.07050   0.07807   0.09003
 Alpha virt. eigenvalues --    0.09236   0.09332   0.09619   0.10067   0.10632
 Alpha virt. eigenvalues --    0.11085   0.11133   0.11852   0.15454   0.15791
 Alpha virt. eigenvalues --    0.16054   0.17313   0.17557   0.17625   0.17710
 Alpha virt. eigenvalues --    0.18280   0.18890   0.19831   0.20007   0.20702
 Alpha virt. eigenvalues --    0.21138   0.21448   0.22233   0.23428   0.23900
 Alpha virt. eigenvalues --    0.24303   0.25107   0.25502   0.26110   0.26618
 Alpha virt. eigenvalues --    0.27443   0.27698   0.29453   0.30628   0.31980
 Alpha virt. eigenvalues --    0.32267   0.33077   0.35006   0.36083   0.36346
 Alpha virt. eigenvalues --    0.37975   0.39864   0.40768   0.40974   0.41993
 Alpha virt. eigenvalues --    0.45778   0.47394   0.48417   0.49608   0.52980
 Alpha virt. eigenvalues --    0.53640   0.56426   0.57419   0.58965   0.60847
 Alpha virt. eigenvalues --    0.62085   0.63837   0.64293   0.66171   0.67200
 Alpha virt. eigenvalues --    0.68496   0.70205   0.71825   0.73355   0.74999
 Alpha virt. eigenvalues --    0.75225   0.76826   0.77634   0.78331   0.79969
 Alpha virt. eigenvalues --    0.80573   0.80828   0.81671   0.82217   0.83817
 Alpha virt. eigenvalues --    0.83993   0.86578   0.87349   0.88207   0.88356
 Alpha virt. eigenvalues --    0.88705   0.90440   0.91357   0.91789   0.92439
 Alpha virt. eigenvalues --    0.92826   0.93470   0.93664   0.94440   0.94831
 Alpha virt. eigenvalues --    0.94935   0.95286   0.95879   0.96579   0.98478
 Alpha virt. eigenvalues --    1.00127   1.00922   1.02761   1.02806   1.03540
 Alpha virt. eigenvalues --    1.04529   1.05438   1.07021   1.08085   1.09015
 Alpha virt. eigenvalues --    1.09952   1.10760   1.11486   1.12836   1.13732
 Alpha virt. eigenvalues --    1.14806   1.15788   1.16963   1.17370   1.18739
 Alpha virt. eigenvalues --    1.19334   1.20911   1.21563   1.22159   1.22990
 Alpha virt. eigenvalues --    1.23783   1.23875   1.24416   1.24955   1.25668
 Alpha virt. eigenvalues --    1.26471   1.26630   1.27327   1.28102   1.28748
 Alpha virt. eigenvalues --    1.29090   1.30132   1.31427   1.31732   1.33640
 Alpha virt. eigenvalues --    1.34113   1.35634   1.36633   1.37588   1.39490
 Alpha virt. eigenvalues --    1.39756   1.40090   1.41257   1.42665   1.44354
 Alpha virt. eigenvalues --    1.46694   1.47237   1.50720   1.51119   1.52108
 Alpha virt. eigenvalues --    1.52948   1.54760   1.62254   1.64807   1.67014
 Alpha virt. eigenvalues --    1.69099   1.70064   1.72674   1.74244   1.84930
 Alpha virt. eigenvalues --    1.86414   1.88002   1.89831   1.93307   1.95751
 Alpha virt. eigenvalues --    1.99926   2.17115   2.35447   2.39222   2.43307
 Alpha virt. eigenvalues --    2.48346   2.52114   2.53682   2.58595   2.61699
 Alpha virt. eigenvalues --    2.65741   2.69582   2.71430   2.71978   2.72626
 Alpha virt. eigenvalues --    2.75779   2.92221   3.02428   3.04496   3.11601
 Alpha virt. eigenvalues --    3.11724   3.12864   3.13295   3.14286   3.15092
 Alpha virt. eigenvalues --    3.17302   3.18377   3.19854   3.20207   3.24410
 Alpha virt. eigenvalues --    3.28958   3.31102   3.42515   3.43271   3.54726
 Alpha virt. eigenvalues --    3.65944   3.70285   3.74326   3.74649   3.79634
 Alpha virt. eigenvalues --    3.79770   3.80609   3.89225   3.94857   3.99850
 Alpha virt. eigenvalues --    4.03360   4.05203   4.05293   4.06191   4.07057
 Alpha virt. eigenvalues --    4.07640   4.08266   4.09025   4.14876   4.21789
 Alpha virt. eigenvalues --    4.24361   4.26620   4.29192   4.30486   4.30781
 Alpha virt. eigenvalues --    4.31051   4.31497   4.31518   4.31803   4.31994
 Alpha virt. eigenvalues --    4.32291   4.32539   4.32575   4.33632   4.33791
 Alpha virt. eigenvalues --    4.34176   4.35277   4.36294   4.36527   4.36638
 Alpha virt. eigenvalues --    4.37052   4.37328   4.38655   4.40048   4.40969
 Alpha virt. eigenvalues --    4.41124   4.42338   4.44215   4.44976   4.46288
 Alpha virt. eigenvalues --    4.47981   4.49297   4.51014   5.38712   5.60282
 Alpha virt. eigenvalues --    5.63809   5.71252   5.88432   5.89024   5.89261
 Alpha virt. eigenvalues --    5.89315   5.90032   5.90408   5.93426   5.97629
 Alpha virt. eigenvalues --    5.99543   6.02955   6.03828   6.05069   6.06120
 Alpha virt. eigenvalues --    6.07458   6.08434   6.09829   6.21260   6.26797
 Alpha virt. eigenvalues --    6.31997   6.34553   6.85684   6.98392   8.42079
 Alpha virt. eigenvalues --    8.42347   8.43189   8.43552   8.44658   8.46700
 Alpha virt. eigenvalues --    8.47690   8.47899   8.55528   8.77969   9.72907
 Alpha virt. eigenvalues --    9.73891   9.77166   9.84875   9.85939   9.94144
 Alpha virt. eigenvalues --    9.99826  10.04560  14.03373  14.08689  14.10077
 Alpha virt. eigenvalues --   14.12484  16.85212  20.27794  20.29150  20.29287
 Alpha virt. eigenvalues --   20.29709  20.29874  20.30723  20.30957  20.31164
 Alpha virt. eigenvalues --   20.34430  20.36423  20.38729  20.41379  20.86972
 Alpha virt. eigenvalues --   20.88791  20.93158  22.96449  25.87169  30.15851
 Alpha virt. eigenvalues --   30.27277  42.80373  42.80909  42.82810  42.94198
 Alpha virt. eigenvalues --   42.97364  65.09378  65.13653  65.14941  65.16986
 Alpha virt. eigenvalues --   78.16006  81.92106  86.01008  86.02595  86.06108
 Alpha virt. eigenvalues --  112.72760 112.73678 112.73734 112.74067 112.74232
 Alpha virt. eigenvalues --  112.74736 112.75185 112.75323 112.77732 112.78930
 Alpha virt. eigenvalues --  112.80520 112.82153 123.10744 162.91730 163.03933
 Alpha virt. eigenvalues --  257.04365 282.44167 282.47691 282.48836 282.50566
 Alpha virt. eigenvalues --  428.62998 428.64259 428.66926 431.78151 772.73685
 Alpha virt. eigenvalues -- 1043.610501043.640711043.650831043.665622068.35183
 Alpha virt. eigenvalues -- 5495.165725634.468835634.509475634.522735634.54294
 Alpha virt. eigenvalues -- ********************
          Condensed to atoms (all electrons):
               1          2          3          4          5          6
     1  Pt  77.765312   0.082393   0.102627   0.094186   0.084771   0.044260
     2  Br   0.082393  35.324145  -0.037618  -0.011898  -0.031217  -0.010347
     3  Br   0.102627  -0.037618  35.471481  -0.042530  -0.044074  -0.050199
     4  Br   0.094186  -0.011898  -0.042530  35.370833  -0.010629  -0.060792
     5  Br   0.084771  -0.031217  -0.044074  -0.010629  35.374244  -0.035026
     6  Cl   0.044260  -0.010347  -0.050199  -0.060792  -0.035026  17.405157
     7  N    0.004665  -0.013772  -0.013427  -0.009706  -0.011900  -0.008860
     8  O    0.057732  -0.022276   0.001118  -0.021752  -0.000346   0.000358
     9  O    0.060283  -0.000522   0.001101  -0.000501  -0.022408  -0.022512
               7          8          9
     1  Pt   0.004665   0.057732   0.060283
     2  Br  -0.013772  -0.022276  -0.000522
     3  Br  -0.013427   0.001118   0.001101
     4  Br  -0.009706  -0.021752  -0.000501
     5  Br  -0.011900  -0.000346  -0.022408
     6  Cl  -0.008860   0.000358  -0.022512
     7  N    5.831206   0.622307   0.620854
     8  O    0.622307   7.506092  -0.075833
     9  O    0.620854  -0.075833   7.514511
 Mulliken charges:
               1
     1  Pt  -0.296230
     2  Br  -0.278888
     3  Br  -0.388479
     4  Br  -0.307210
     5  Br  -0.303415
     6  Cl  -0.262040
     7  N   -0.021366
     8  O   -0.067399
     9  O   -0.074975
 Sum of Mulliken charges =  -2.00000
 Mulliken charges with hydrogens summed into heavy atoms:
               1
     1  Pt  -0.296230
     2  Br  -0.278888
     3  Br  -0.388479
     4  Br  -0.307210
     5  Br  -0.303415
     6  Cl  -0.262040
     7  N   -0.021366
     8  O   -0.067399
     9  O   -0.074975
 Electronic spatial extent (au):  <R**2>=           4518.5814
 Charge=             -2.0000 electrons
 Dipole moment (field-independent basis, Debye):
    X=              0.0482    Y=             -1.0093    Z=              2.0019  Tot=              2.2424
 Quadrupole moment (field-independent basis, Debye-Ang):
   XX=           -165.0576   YY=           -167.3551   ZZ=           -165.3615
   XY=              0.2659   XZ=             -1.6212   YZ=             -0.1613
 Traceless Quadrupole moment (field-independent basis, Debye-Ang):
   XX=              0.8671   YY=             -1.4304   ZZ=              0.5632
   XY=              0.2659   XZ=             -1.6212   YZ=             -0.1613
 Octapole moment (field-independent basis, Debye-Ang**2):
  XXX=              0.2085  YYY=             25.6766  ZZZ=             46.8291  XYY=             -1.0848
  XXY=              9.5881  XXZ=             14.2465  XZZ=              1.8809  YZZ=              9.5478
  YYZ=             15.1155  XYZ=              5.3833
 Hexadecapole moment (field-independent basis, Debye-Ang**3):
 XXXX=          -1875.5614 YYYY=          -1821.0863 ZZZZ=          -1582.6482 XXXY=              0.7146
 XXXZ=             -3.0225 YYYX=              8.7008 YYYZ=            -22.7498 ZZZX=             -7.1019
 ZZZY=             -4.8778 XXYY=           -586.3427 XXZZ=           -558.9545 YYZZ=           -539.7616
 XXYZ=             -2.5573 YYXZ=            -15.4502 ZZXY=             -4.4479
 N-N= 4.841258479510D+03 E-N=-7.637709993423D+04  KE= 2.770461426254D+04
 Calculating spin-rotation constants.
 Leave Link  601 at Sat Oct 30 04:18:21 2021, MaxMem=  2013265920 cpu:         5.4
 (Enter /scr/programas/g09/l9999.exe)
 1\1\GINC-NQTCM04\SP\RPBEPBE\Gen\Br4Cl1N1O2Pt1(2-)\DIEGO\30-Oct-2021\0\
 \#PBEPBE/gen scf=maxcycle=200 NMR=GIAO Scrf=(solvent=water)\\estrutura
  35\\-2,1\Pt,0,0.001541,-0.109745,0.193786\Br,0,-0.048225,-0.344644,-2
 .326916\Br,0,0.045516,2.459096,-0.05475\Br,0,-2.542763,-0.070936,0.278
 011\Br,0,2.545566,-0.159492,0.113706\Cl,0,0.047122,0.150998,2.582161\N
 ,0,-0.032771,-2.207226,0.418227\O,0,-0.777173,-2.853487,-0.294242\O,0,
 0.690272,-2.708657,1.257812\\Version=EM64L-G09RevD.01\State=1-A\HF=-28
 048.0610588\RMSD=9.776e-09\Dipole=-0.0189596,-0.3970705,-0.7875906\Qua
 drupole=0.6446889,-1.0634434,0.4187546,-0.1976687,-1.2053022,0.1198907
 \PG=C01 [X(Br4Cl1N1O2Pt1)]\\@


 ALL SCIENCE IS EITHER PHYSICS, OR STAMP COLLECTING.
   --ERNEST RUTHERFORD, 1871-1937.
 Job cpu time:       0 days  1 hours 18 minutes 10.4 seconds.
 File lengths (MBytes):  RWF=    203 Int=      0 D2E=      0 Chk=     16 Scr=      1
 Normal termination of Gaussian 09 at Sat Oct 30 04:18:21 2021.
