 Entering Gaussian System, Link 0=g16
 Input=/home/nqtcm/Documentos/correçao/estrutura68freq_LANL2DZ_TZVP.com
 Output=/home/nqtcm/Documentos/correçao/estrutura68freq_LANL2DZ_TZVP.log
 Initial command:
 /scr/programas/g16/l1.exe "/scr/nqtcm/Gau-13658.inp" -scrdir="/scr/nqtcm/"
 Entering Link 1 = /scr/programas/g16/l1.exe PID=     13660.
  
 Copyright (c) 1988-2019, Gaussian, Inc.  All Rights Reserved.
  
 This is part of the Gaussian(R) 16 program.  It is based on
 the Gaussian(R) 09 system (copyright 2009, Gaussian, Inc.),
 the Gaussian(R) 03 system (copyright 2003, Gaussian, Inc.),
 the Gaussian(R) 98 system (copyright 1998, Gaussian, Inc.),
 the Gaussian(R) 94 system (copyright 1995, Gaussian, Inc.),
 the Gaussian 92(TM) system (copyright 1992, Gaussian, Inc.),
 the Gaussian 90(TM) system (copyright 1990, Gaussian, Inc.),
 the Gaussian 88(TM) system (copyright 1988, Gaussian, Inc.),
 the Gaussian 86(TM) system (copyright 1986, Carnegie Mellon
 University), and the Gaussian 82(TM) system (copyright 1983,
 Carnegie Mellon University). Gaussian is a federally registered
 trademark of Gaussian, Inc.
  
 This software contains proprietary and confidential information,
 including trade secrets, belonging to Gaussian, Inc.
  
 This software is provided under written license and may be
 used, copied, transmitted, or stored only in accord with that
 written license.
  
 The following legend is applicable only to US Government
 contracts under FAR:
  
                    RESTRICTED RIGHTS LEGEND
  
 Use, reproduction and disclosure by the US Government is
 subject to restrictions as set forth in subparagraphs (a)
 and (c) of the Commercial Computer Software - Restricted
 Rights clause in FAR 52.227-19.
  
 Gaussian, Inc.
 340 Quinnipiac St., Bldg. 40, Wallingford CT 06492
  
  
 ---------------------------------------------------------------
 Warning -- This program may not be used in any manner that
 competes with the business of Gaussian, Inc. or will provide
 assistance to any competitor of Gaussian, Inc.  The licensee
 of this program is prohibited from giving any competitor of
 Gaussian, Inc. access to this program.  By using this program,
 the user acknowledges that Gaussian, Inc. is engaged in the
 business of creating and licensing software in the field of
 computational chemistry and represents and warrants to the
 licensee that it is not a competitor of Gaussian, Inc. and that
 it will not use this program in any manner prohibited above.
 ---------------------------------------------------------------
  

 Cite this work as:
 Gaussian 16, Revision C.01,
 M. J. Frisch, G. W. Trucks, H. B. Schlegel, G. E. Scuseria, 
 M. A. Robb, J. R. Cheeseman, G. Scalmani, V. Barone, 
 G. A. Petersson, H. Nakatsuji, X. Li, M. Caricato, A. V. Marenich, 
 J. Bloino, B. G. Janesko, R. Gomperts, B. Mennucci, H. P. Hratchian, 
 J. V. Ortiz, A. F. Izmaylov, J. L. Sonnenberg, D. Williams-Young, 
 F. Ding, F. Lipparini, F. Egidi, J. Goings, B. Peng, A. Petrone, 
 T. Henderson, D. Ranasinghe, V. G. Zakrzewski, J. Gao, N. Rega, 
 G. Zheng, W. Liang, M. Hada, M. Ehara, K. Toyota, R. Fukuda, 
 J. Hasegawa, M. Ishida, T. Nakajima, Y. Honda, O. Kitao, H. Nakai, 
 T. Vreven, K. Throssell, J. A. Montgomery, Jr., J. E. Peralta, 
 F. Ogliaro, M. J. Bearpark, J. J. Heyd, E. N. Brothers, K. N. Kudin, 
 V. N. Staroverov, T. A. Keith, R. Kobayashi, J. Normand, 
 K. Raghavachari, A. P. Rendell, J. C. Burant, S. S. Iyengar, 
 J. Tomasi, M. Cossi, J. M. Millam, M. Klene, C. Adamo, R. Cammi, 
 J. W. Ochterski, R. L. Martin, K. Morokuma, O. Farkas, 
 J. B. Foresman, and D. J. Fox, Gaussian, Inc., Wallingford CT, 2019.
 
 ******************************************
 Gaussian 16:  EM64L-G16RevC.01  3-Jul-2019
                13-Aug-2025 
 ******************************************
 %mem=7Gb
 %nproc=8
 Will use up to    8 processors via shared memory.
 ----------------------------------------------------------
 #PBEPBE/gen scf=maxcycle=200 NMR=GIAO Scrf=(solvent=water)
 ----------------------------------------------------------
 1/38=1,172=1/1;
 2/12=2,17=6,18=5,40=1/2;
 3/5=7,11=2,25=1,30=1,70=2201,72=1,74=1009/1,2,3,8;
 4//1;
 5/5=2,7=200,38=5,53=1/2;
 8/6=1,10=90,11=11/1;
 10/13=100,45=16/2;
 6/7=2,8=2,9=2,10=2,28=1/1;
 99/9=1/99;
 Leave Link    1 at Wed Aug 13 13:08:58 2025, MaxMem=   939524096 cpu:               0.7 elap:               0.2
 (Enter /scr/programas/g16/l101.exe)
 ------------
 estrutura 68
 ------------
 Symbolic Z-matrix:
 Charge = -2 Multiplicity = 1
 Pt                   -0.00001  -0.00001   0.00002 
 N                     1.32279   0.31526  -1.63443 
 O                     2.45895   0.69086  -1.39692 
 O                     0.90848   0.11202  -2.76379 
 N                     1.53804   0.5726    1.3522 
 N                    -1.32267  -0.31541   1.63452 
 O                    -2.45831  -0.69266   1.39711 
 O                    -0.9087   -0.11086   2.76377 
 O                     2.28361  -0.29195   1.78254 
 O                     1.63171   1.74958   1.65941 
 N                    -0.64094   2.02336  -0.12874 
 O                    -0.14941   2.73396  -0.99011 
 O                    -1.48219   2.41665   0.66249 
 N                     0.64084  -2.02338   0.12882 
 O                     1.481    -2.41717  -0.6633 
 O                     0.15042  -2.73354   0.99116 
 N                    -1.53806  -0.57226  -1.35231 
 O                    -1.6323   -1.74925  -1.65928 
 O                    -2.28319   0.29231  -1.78327 
 
 ITRead=  0  0  0  0  0  0  0  0  0  0  0  0  0  0  0  0  0  0  0
 MicOpt= -1 -1 -1 -1 -1 -1 -1 -1 -1 -1 -1 -1 -1 -1 -1 -1 -1 -1 -1
 NAtoms=     19 NQM=       19 NQMF=       0 NMMI=      0 NMMIF=      0
                NMic=       0 NMicF=      0.
                    Isotopes and Nuclear Properties:
 (Nuclear quadrupole moments (NQMom) in fm**2, nuclear magnetic moments (NMagM)
  in nuclear magnetons)

  Atom         1           2           3           4           5           6           7           8           9          10
 IAtWgt=         195          14          16          16          14          14          16          16          16          16
 AtmWgt= 194.9648000  14.0030740  15.9949146  15.9949146  14.0030740  14.0030740  15.9949146  15.9949146  15.9949146  15.9949146
 NucSpn=           1           2           0           0           2           2           0           0           0           0
 AtZEff=  -0.0000000  -0.0000000  -0.0000000  -0.0000000  -0.0000000  -0.0000000  -0.0000000  -0.0000000  -0.0000000  -0.0000000
 NQMom=    0.0000000   2.0440000   0.0000000   0.0000000   2.0440000   2.0440000   0.0000000   0.0000000   0.0000000   0.0000000
 NMagM=    0.6095000   0.4037610   0.0000000   0.0000000   0.4037610   0.4037610   0.0000000   0.0000000   0.0000000   0.0000000
 AtZNuc=  78.0000000   7.0000000   8.0000000   8.0000000   7.0000000   7.0000000   8.0000000   8.0000000   8.0000000   8.0000000

  Atom        11          12          13          14          15          16          17          18          19
 IAtWgt=          14          16          16          14          16          16          14          16          16
 AtmWgt=  14.0030740  15.9949146  15.9949146  14.0030740  15.9949146  15.9949146  14.0030740  15.9949146  15.9949146
 NucSpn=           2           0           0           2           0           0           2           0           0
 AtZEff=  -0.0000000  -0.0000000  -0.0000000  -0.0000000  -0.0000000  -0.0000000  -0.0000000  -0.0000000  -0.0000000
 NQMom=    2.0440000   0.0000000   0.0000000   2.0440000   0.0000000   0.0000000   2.0440000   0.0000000   0.0000000
 NMagM=    0.4037610   0.0000000   0.0000000   0.4037610   0.0000000   0.0000000   0.4037610   0.0000000   0.0000000
 AtZNuc=   7.0000000   8.0000000   8.0000000   7.0000000   8.0000000   8.0000000   7.0000000   8.0000000   8.0000000
 Leave Link  101 at Wed Aug 13 13:08:58 2025, MaxMem=   939524096 cpu:               1.9 elap:               0.5
 (Enter /scr/programas/g16/l202.exe)
                          Input orientation:                          
 ---------------------------------------------------------------------
 Center     Atomic      Atomic             Coordinates (Angstroms)
 Number     Number       Type             X           Y           Z
 ---------------------------------------------------------------------
      1         78           0       -0.000009   -0.000011    0.000015
      2          7           0        1.322789    0.315259   -1.634427
      3          8           0        2.458954    0.690863   -1.396916
      4          8           0        0.908477    0.112022   -2.763787
      5          7           0        1.538043    0.572595    1.352199
      6          7           0       -1.322666   -0.315405    1.634516
      7          8           0       -2.458309   -0.692656    1.397106
      8          8           0       -0.908704   -0.110864    2.763773
      9          8           0        2.283614   -0.291945    1.782541
     10          8           0        1.631713    1.749584    1.659406
     11          7           0       -0.640937    2.023361   -0.128742
     12          8           0       -0.149408    2.733958   -0.990108
     13          8           0       -1.482194    2.416654    0.662487
     14          7           0        0.640842   -2.023378    0.128821
     15          8           0        1.481003   -2.417174   -0.663296
     16          8           0        0.150421   -2.733538    0.991155
     17          7           0       -1.538061   -0.572264   -1.352308
     18          8           0       -1.632299   -1.749248   -1.659284
     19          8           0       -2.283188    0.292308   -1.783269
 ---------------------------------------------------------------------
                    Distance matrix (angstroms):
                    1          2          3          4          5
     1  Pt   0.000000
     2  N    2.126168   0.000000
     3  O    2.911223   1.219984   0.000000
     4  O    2.911443   1.220006   2.146479   0.000000
     5  N    2.126472   3.005410   2.901672   4.189251   0.000000
     6  N    2.126144   4.252312   4.950031   4.950330   3.008638
     7  O    2.911161   4.950029   5.822384   5.412558   4.192100
     8  O    2.911421   4.950283   5.412506   5.822864   2.906240
     9  O    2.911625   3.601049   3.332507   4.766895   1.220041
    10  O    2.911559   3.605837   3.338611   4.771720   1.220022
    11  N    2.126359   3.006812   3.604600   3.605186   3.007634
    12  O    2.911572   2.903897   3.338156   3.337605   3.606298
    13  O    2.911359   4.190418   4.769921   4.771372   3.605286
    14  N    2.126334   3.007211   3.605622   3.605377   3.006776
    15  O    2.911367   2.904190   3.339832   3.337167   3.606133
    16  O    2.911556   4.190858   4.770611   4.771944   3.603660
    17  N    2.126465   3.008613   4.192089   2.906212   4.252937
    18  O    2.911610   3.604907   4.770884   3.337633   4.950864
    19  O    2.911779   3.609121   4.774518   3.343747   4.950912
                    6          7          8          9         10
     6  N    0.000000
     7  O    1.219986   0.000000
     8  O    1.220009   2.146517   0.000000
     9  O    3.609393   4.774407   3.344623   0.000000
    10  O    3.604602   4.770914   3.336857   2.146620   0.000000
    11  N    3.007268   3.606633   3.604616   4.191258   2.904714
    12  O    4.190919   4.771949   4.770866   4.771087   3.340854
    13  O    2.904210   3.340700   3.336561   4.772037   3.336952
    14  N    3.006602   3.603346   3.605797   2.903679   4.190436
    15  O    4.190219   4.768375   4.772271   3.338098   4.772791
    16  O    2.903664   3.336985   3.338014   3.337391   4.768560
    17  N    3.005576   2.901832   4.189404   4.950864   4.950643
    18  O    3.605676   3.337694   4.771931   5.413341   5.823169
    19  O    3.601829   3.334008   4.767321   5.823404   5.413143
                   11         12         13         14         15
    11  N    0.000000
    12  O    1.220041   0.000000
    13  O    1.220015   2.146642   0.000000
    14  N    4.252692   4.950631   4.950350   0.000000
    15  O    4.950427   5.412874   5.822725   1.219998   0.000000
    16  O    4.950607   5.823127   5.412756   1.220025   2.146565
    17  N    3.006529   3.604254   3.605017   3.007839   3.604605
    18  O    4.190219   4.769266   4.771571   2.905105   3.336280
    19  O    2.903617   3.338229   3.337089   4.191472   4.771244
                   16         17         18         19
    16  O    0.000000
    17  N    3.607478   0.000000
    18  O    3.342416   1.220003   0.000000
    19  O    4.772382   1.220011   2.146388   0.000000
 Stoichiometry    N6O12Pt(2-)
 Framework group  C1[X(N6O12Pt)]
 Deg. of freedom    51
 Full point group                 C1      NOp   1
 Largest Abelian subgroup         C1      NOp   1
 Largest concise Abelian subgroup C1      NOp   1
                         Standard orientation:                         
 ---------------------------------------------------------------------
 Center     Atomic      Atomic             Coordinates (Angstroms)
 Number     Number       Type             X           Y           Z
 ---------------------------------------------------------------------
      1         78           0       -0.000009    0.000011   -0.000015
      2          7           0        1.322803   -0.315199    1.634427
      3          8           0        2.458985   -0.690751    1.396916
      4          8           0        0.908482   -0.111981    2.763787
      5          7           0        1.538069   -0.572525   -1.352199
      6          7           0       -1.322680    0.315345   -1.634516
      7          8           0       -2.458340    0.692545   -1.397106
      8          8           0       -0.908709    0.110823   -2.763773
      9          8           0        2.283601    0.292049   -1.782541
     10          8           0        1.631792   -1.749510   -1.659406
     11          7           0       -0.640845   -2.023390    0.128742
     12          8           0       -0.149284   -2.733965    0.990108
     13          8           0       -1.482085   -2.416721   -0.662487
     14          7           0        0.640750    2.023407   -0.128821
     15          8           0        1.480893    2.417241    0.663296
     16          8           0        0.150297    2.733545   -0.991155
     17          7           0       -1.538087    0.572194    1.352308
     18          8           0       -1.632378    1.749174    1.659284
     19          8           0       -2.283175   -0.292411    1.783269
 ---------------------------------------------------------------------
 Rotational constants (GHZ):           0.3778821           0.3777194           0.3776072
 Leave Link  202 at Wed Aug 13 13:08:59 2025, MaxMem=   939524096 cpu:               0.5 elap:               0.1
 (Enter /scr/programas/g16/l301.exe)
 General basis read from cards:  (5D, 7F)
 Centers:       2      5      6     11     14     17
 S 6 1.00
     Exponent=  1.2238326969D+04 Coefficients=  5.6000000000D-04
     Exponent=  4.0794423230D+03 Coefficients=  7.7000000000D-04
     Exponent=  1.3598141077D+03 Coefficients=  4.0600000000D-03
     Exponent=  4.5327136922D+02 Coefficients=  1.3910000000D-02
     Exponent=  1.5109045641D+02 Coefficients=  5.2990000000D-02
     Exponent=  5.0363485469D+01 Coefficients=  1.6952000000D-01
 S 1 1.00
     Exponent=  1.6787828490D+01 Coefficients=  1.0000000000D+00
 S 1 1.00
     Exponent=  5.5959428299D+00 Coefficients=  1.0000000000D+00
 S 1 1.00
     Exponent=  1.8653142766D+00 Coefficients=  1.0000000000D+00
 S 1 1.00
     Exponent=  6.2177142554D-01 Coefficients=  1.0000000000D+00
 S 1 1.00
     Exponent=  2.0725714185D-01 Coefficients=  1.0000000000D+00
 P 4 1.00
     Exponent=  5.4142548249D+01 Coefficients=  3.9700000000D-03
     Exponent=  1.6659245615D+01 Coefficients=  1.9540000000D-02
     Exponent=  5.1259217277D+00 Coefficients=  9.9790000000D-02
     Exponent=  1.5772066854D+00 Coefficients=  3.2845000000D-01
 P 1 1.00
     Exponent=  4.8529436475D-01 Coefficients=  1.0000000000D+00
 P 1 1.00
     Exponent=  1.4932134300D-01 Coefficients=  1.0000000000D+00
 D 1 1.00
     Exponent=  4.7700000000D-01 Coefficients=  1.0000000000D+00
 D 1 1.00
     Exponent=  1.5026000000D-01 Coefficients=  1.0000000000D+00
 ****
 Centers:       3      4      7      8      9     10     12     13     15     16
 Centers:      18     19
 S 6 1.00
     Exponent=  1.6178118231D+04 Coefficients=  6.0000000000D-04
     Exponent=  5.3927060771D+03 Coefficients=  7.8000000000D-04
     Exponent=  1.7975686924D+03 Coefficients=  4.1000000000D-03
     Exponent=  5.9918956413D+02 Coefficients=  1.3880000000D-02
     Exponent=  1.9972985471D+02 Coefficients=  5.2770000000D-02
     Exponent=  6.6576618236D+01 Coefficients=  1.6924000000D-01
 S 1 1.00
     Exponent=  2.2192206079D+01 Coefficients=  1.0000000000D+00
 S 1 1.00
     Exponent=  7.3974020263D+00 Coefficients=  1.0000000000D+00
 S 1 1.00
     Exponent=  2.4658006754D+00 Coefficients=  1.0000000000D+00
 S 1 1.00
     Exponent=  8.2193355847D-01 Coefficients=  1.0000000000D+00
 S 1 1.00
     Exponent=  2.7397785282D-01 Coefficients=  1.0000000000D+00
 P 4 1.00
     Exponent=  7.3854398670D+01 Coefficients=  4.0200000000D-03
     Exponent=  2.2724430360D+01 Coefficients=  2.0130000000D-02
     Exponent=  6.9921324184D+00 Coefficients=  1.0470000000D-01
     Exponent=  2.1514253595D+00 Coefficients=  3.3605000000D-01
 P 1 1.00
     Exponent=  6.6197703370D-01 Coefficients=  1.0000000000D+00
 P 1 1.00
     Exponent=  2.0368524114D-01 Coefficients=  1.0000000000D+00
 D 1 1.00
     Exponent=  9.2880000000D-01 Coefficients=  1.0000000000D+00
 D 1 1.00
     Exponent=  2.2975000000D-01 Coefficients=  1.0000000000D+00
 ****
 Centers:       1
 S 9 1.00
     Exponent=  2.1644816090D+06 Coefficients=  1.2320000000D-02
     Exponent=  1.0822408045D+06 Coefficients=  1.2970000000D-02
     Exponent=  5.4112040224D+05 Coefficients=  2.6370000000D-02
     Exponent=  2.7056020112D+05 Coefficients=  9.0400000000D-03
     Exponent=  1.3528010056D+05 Coefficients=  3.4980000000D-02
     Exponent=  6.7640050280D+04 Coefficients=  1.2220000000D-02
     Exponent=  3.3820025140D+04 Coefficients=  6.0520000000D-02
     Exponent=  1.6910012570D+04 Coefficients=  6.4930000000D-02
     Exponent=  8.4550062850D+03 Coefficients=  1.3819000000D-01
 S 1 1.00
     Exponent=  4.2275031425D+03 Coefficients=  1.0000000000D+00
 S 1 1.00
     Exponent=  2.1137515713D+03 Coefficients=  1.0000000000D+00
 S 1 1.00
     Exponent=  1.0568757856D+03 Coefficients=  1.0000000000D+00
 S 1 1.00
     Exponent=  5.2843789281D+02 Coefficients=  1.0000000000D+00
 S 1 1.00
     Exponent=  2.6421894641D+02 Coefficients=  1.0000000000D+00
 S 1 1.00
     Exponent=  1.3210947320D+02 Coefficients=  1.0000000000D+00
 S 1 1.00
     Exponent=  6.6054736602D+01 Coefficients=  1.0000000000D+00
 S 1 1.00
     Exponent=  3.3027368301D+01 Coefficients=  1.0000000000D+00
 S 1 1.00
     Exponent=  1.6513684150D+01 Coefficients=  1.0000000000D+00
 S 1 1.00
     Exponent=  8.2568420752D+00 Coefficients=  1.0000000000D+00
 S 1 1.00
     Exponent=  4.1284210376D+00 Coefficients=  1.0000000000D+00
 S 1 1.00
     Exponent=  2.0642105188D+00 Coefficients=  1.0000000000D+00
 S 1 1.00
     Exponent=  1.0321052594D+00 Coefficients=  1.0000000000D+00
 S 1 1.00
     Exponent=  5.1605262970D-01 Coefficients=  1.0000000000D+00
 S 1 1.00
     Exponent=  2.5802631485D-01 Coefficients=  1.0000000000D+00
 S 1 1.00
     Exponent=  1.2901315743D-01 Coefficients=  1.0000000000D+00
 S 1 1.00
     Exponent=  6.4506578713D-02 Coefficients=  1.0000000000D+00
 P 7 1.00
     Exponent=  3.2357915258D+04 Coefficients=  5.0200000000D-03
     Exponent=  1.4381295670D+04 Coefficients=  2.0200000000D-03
     Exponent=  6.3916869645D+03 Coefficients=  1.8070000000D-02
     Exponent=  2.8407497620D+03 Coefficients=  3.6620000000D-02
     Exponent=  1.2625554498D+03 Coefficients=  1.1172000000D-01
     Exponent=  5.6113575545D+02 Coefficients=  2.5586000000D-01
     Exponent=  2.4939366909D+02 Coefficients=  4.2608000000D-01
 P 1 1.00
     Exponent=  1.1084163071D+02 Coefficients=  1.0000000000D+00
 P 1 1.00
     Exponent=  4.9262946981D+01 Coefficients=  1.0000000000D+00
 P 1 1.00
     Exponent=  2.1894643103D+01 Coefficients=  1.0000000000D+00
 P 1 1.00
     Exponent=  9.7309524900D+00 Coefficients=  1.0000000000D+00
 P 1 1.00
     Exponent=  4.3248677733D+00 Coefficients=  1.0000000000D+00
 P 1 1.00
     Exponent=  1.9221634548D+00 Coefficients=  1.0000000000D+00
 P 1 1.00
     Exponent=  8.5429486881D-01 Coefficients=  1.0000000000D+00
 P 1 1.00
     Exponent=  3.7968660836D-01 Coefficients=  1.0000000000D+00
 P 1 1.00
     Exponent=  1.6874960372D-01 Coefficients=  1.0000000000D+00
 P 1 1.00
     Exponent=  7.4999823874D-02 Coefficients=  1.0000000000D+00
 P 1 1.00
     Exponent=  3.3333255055D-02 Coefficients=  1.0000000000D+00
 D 5 1.00
     Exponent=  1.9119003508D+03 Coefficients=  4.3300000000D-03
     Exponent=  7.6476014031D+02 Coefficients=  1.7780000000D-02
     Exponent=  3.0590405613D+02 Coefficients=  8.9710000000D-02
     Exponent=  1.2236162245D+02 Coefficients=  3.1123000000D-01
     Exponent=  4.8944648980D+01 Coefficients=  5.3206000000D-01
 D 1 1.00
     Exponent=  1.9577859592D+01 Coefficients=  1.0000000000D+00
 D 1 1.00
     Exponent=  7.8311438368D+00 Coefficients=  1.0000000000D+00
 D 1 1.00
     Exponent=  3.1324575347D+00 Coefficients=  1.0000000000D+00
 D 1 1.00
     Exponent=  1.2529830139D+00 Coefficients=  1.0000000000D+00
 D 1 1.00
     Exponent=  5.0119320556D-01 Coefficients=  1.0000000000D+00
 D 1 1.00
     Exponent=  2.0047728222D-01 Coefficients=  1.0000000000D+00
 D 1 1.00
     Exponent=  8.0190912889D-02 Coefficients=  1.0000000000D+00
 D 1 1.00
     Exponent=  3.2076365156D-02 Coefficients=  1.0000000000D+00
 F 4 1.00
     Exponent=  8.2289680979D+01 Coefficients=  6.1870000000D-02
     Exponent=  2.9923520356D+01 Coefficients=  2.4823000000D-01
     Exponent=  1.0881280130D+01 Coefficients=  4.9956000000D-01
     Exponent=  3.9568291380D+00 Coefficients=  4.0380000000D-01
 F 1 1.00
     Exponent=  1.4388469593D+00 Coefficients=  1.0000000000D+00
 F 1 1.00
     Exponent=  5.2321707610D-01 Coefficients=  1.0000000000D+00
 G 1 1.00
     Exponent=  2.6700000000D+00 Coefficients=  1.0000000000D+00
 G 1 1.00
     Exponent=  9.0960000000D-01 Coefficients=  1.0000000000D+00
 ****
 Ernie: Thresh=  0.10000D-02 Tol=  0.10000D-05 Strict=F.
 There are   654 symmetry adapted cartesian basis functions of A   symmetry.
 There are   588 symmetry adapted basis functions of A   symmetry.
   588 basis functions,   986 primitive gaussians,   654 cartesian basis functions
   109 alpha electrons      109 beta electrons
       nuclear repulsion energy      3646.8944137422 Hartrees.
 IExCor= 1009 DFT=T Ex=PBE Corr=PBE ExCW=0 ScaHFX=  0.000000
 ScaDFX=  1.000000  1.000000  1.000000  1.000000 ScalE2=  1.000000  1.000000
 IRadAn=      5 IRanWt=     -1 IRanGd=            0 ICorTp=0 IEmpDi=  4
 NAtoms=   19 NActive=   19 NUniq=   19 SFac= 1.00D+00 NAtFMM=   60 NAOKFM=F Big=F
 Integral buffers will be    131072 words long.
 Raffenetti 2 integral format.
 Two-electron integral symmetry is turned on.
 ------------------------------------------------------------------------------
 Polarizable Continuum Model (PCM)
 =================================
 Model                : PCM.
 Atomic radii         : UFF (Universal Force Field).
 Polarization charges : Total charges.
 Charge compensation  : None.
 Solution method      : On-the-fly selection.
 Cavity type          : Scaled VdW (van der Waals Surface) (Alpha=1.100).
 Cavity algorithm     : GePol (No added spheres)
                        Default sphere list used, NSphG=   19.
                        Lebedev-Laikov grids with approx.  5.0 points / Ang**2.
                        Smoothing algorithm: York/Karplus (Gamma=1.0000).
                        Polarization charges: spherical gaussians, with
                                              point-specific exponents (IZeta= 3).
                        Self-potential: point-specific (ISelfS= 7).
                        Self-field    : sphere-specific E.n sum rule (ISelfD= 2).
 Solvent              : Water, Eps=  78.355300 Eps(inf)=   1.777849
 ------------------------------------------------------------------------------
 Spheres list:
 ISph  on   Nord     Re0    Alpha      Xe            Ye            Ze
    1  Pt      1    1.3770  1.100     -0.000009      0.000011     -0.000015
    2   N      2    1.8300  1.100      1.322803     -0.315199      1.634427
    3   O      3    1.7500  1.100      2.458985     -0.690751      1.396916
    4   O      4    1.7500  1.100      0.908482     -0.111981      2.763787
    5   N      5    1.8300  1.100      1.538069     -0.572525     -1.352199
    6   N      6    1.8300  1.100     -1.322680      0.315345     -1.634516
    7   O      7    1.7500  1.100     -2.458340      0.692545     -1.397106
    8   O      8    1.7500  1.100     -0.908709      0.110823     -2.763773
    9   O      9    1.7500  1.100      2.283601      0.292049     -1.782541
   10   O     10    1.7500  1.100      1.631792     -1.749510     -1.659406
   11   N     11    1.8300  1.100     -0.640845     -2.023390      0.128742
   12   O     12    1.7500  1.100     -0.149284     -2.733965      0.990108
   13   O     13    1.7500  1.100     -1.482085     -2.416721     -0.662487
   14   N     14    1.8300  1.100      0.640750      2.023407     -0.128821
   15   O     15    1.7500  1.100      1.480893      2.417241      0.663296
   16   O     16    1.7500  1.100      0.150297      2.733545     -0.991155
   17   N     17    1.8300  1.100     -1.538087      0.572194      1.352308
   18   O     18    1.7500  1.100     -1.632378      1.749174      1.659284
   19   O     19    1.7500  1.100     -2.283175     -0.292411      1.783269
 ------------------------------------------------------------------------------
 GePol: Number of generator spheres                  =      19
 GePol: Total number of spheres                      =      19
 GePol: Number of exposed spheres                    =      18 ( 94.74%)
 GePol: Number of points                             =    2124
 GePol: Average weight of points                     =       0.13
 GePol: Minimum weight of points                     =   0.19D-09
 GePol: Maximum weight of points                     =    0.18187
 GePol: Number of points with low weight             =     107
 GePol: Fraction of low-weight points (<1% of avg)   =       5.04%
 GePol: Cavity surface area                          =    279.365 Ang**2
 GePol: Cavity volume                                =    304.549 Ang**3
 Leave Link  301 at Wed Aug 13 13:08:59 2025, MaxMem=   939524096 cpu:               0.6 elap:               0.2
 (Enter /scr/programas/g16/l302.exe)
 NPDir=0 NMtPBC=     1 NCelOv=     1 NCel=       1 NClECP=     1 NCelD=      1
         NCelK=      1 NCelE2=     1 NClLst=     1 CellRange=     0.0.
 One-electron integrals computed using PRISM.
 One-electron integral symmetry used in STVInt
 NBasis=   588 RedAO= T EigKep=  2.17D-05  NBF=   588
 NBsUse=   588 1.00D-06 EigRej= -1.00D+00 NBFU=   588
 Precomputing XC quadrature grid using
 IXCGrd= 4 IRadAn=           5 IRanWt=          -1 IRanGd=           0 AccXCQ= 0.00D+00.
 Defaulting to unpruned grid for atomic number  78.
 Generated NRdTot=       0 NPtTot=           0 NUsed=           0 NTot=          32
 NSgBfM=   610   610   610   610   610 MxSgAt=    19 MxSgA2=    19.
 Leave Link  302 at Wed Aug 13 13:09:06 2025, MaxMem=   939524096 cpu:              27.5 elap:               6.9
 (Enter /scr/programas/g16/l303.exe)
 DipDrv:  MaxL=1.
 Leave Link  303 at Wed Aug 13 13:09:06 2025, MaxMem=   939524096 cpu:               3.4 elap:               0.9
 (Enter /scr/programas/g16/l308.exe)
 Leave Link  308 at Wed Aug 13 13:09:08 2025, MaxMem=   939524096 cpu:               7.9 elap:               2.0
 (Enter /scr/programas/g16/l401.exe)
 ExpMin= 3.21D-02 ExpMax= 2.16D+06 ExpMxC= 2.16D+06 IAcc=4 IRadAn=    199590 AccDes= 0.00D+00
 Harris functional with IExCor= 1009 and IRadAn=  199590 diagonalized for initial guess.
 HarFok:  IExCor= 1009 AccDes= 0.00D+00 IRadAn=    199590 IDoV= 1 UseB2=F ITyADJ=14
 ICtDFT=  3500011 ScaDFX=  1.000000  1.000000  1.000000  1.000000
 FoFCou: FMM=F IPFlag=           0 FMFlag=      100000 FMFlg1=           0
         NFxFlg=           0 DoJE=T BraDBF=F KetDBF=T FulRan=T
         wScrn=  0.000000 ICntrl=       500 IOpCl=  0 I1Cent=   200000004 NGrid=           0
         NMat0=    1 NMatS0=      1 NMatT0=    0 NMatD0=    1 NMtDS0=    0 NMtDT0=    0
 Petite list used in FoFCou.
 Harris En= -18355.5574520273    
 JPrj=0 DoOrth=F DoCkMO=F.
 Leave Link  401 at Wed Aug 13 13:09:42 2025, MaxMem=   939524096 cpu:             134.0 elap:              33.7
 (Enter /scr/programas/g16/l502.exe)
 Integral symmetry usage will be decided dynamically.
 Closed shell SCF:
 Using DIIS extrapolation, IDIIS=  1040.
 NGot=   939524096 LenX=   938657410 LenY=   938229040
 Requested convergence on RMS density matrix=1.00D-08 within 200 cycles.
 Requested convergence on MAX density matrix=1.00D-06.
 Requested convergence on             energy=1.00D-06.
 No special actions if energy rises.
 Fock matrices will be formed incrementally for  20 cycles.

 Cycle   1  Pass 1  IDiag  1:
 FoFJK:  IHMeth= 1 ICntrl=     500 DoSepK=F KAlg= 0 I1Cent=           0 FoldK=F
 IRaf= 800000000 NMat=       1 IRICut=       1 DoRegI=T DoRafI=F ISym2E= 0 IDoP0=0 IntGTp=1.
 FoFCou: FMM=F IPFlag=           0 FMFlag=      100000 FMFlg1=           0
         NFxFlg=           0 DoJE=T BraDBF=F KetDBF=F FulRan=T
         wScrn=  0.000000 ICntrl=       500 IOpCl=  0 I1Cent=           0 NGrid=           0
         NMat0=    1 NMatS0=      1 NMatT0=    0 NMatD0=    1 NMtDS0=    0 NMtDT0=    0
 Symmetry not used in FoFCou.
 Defaulting to unpruned grid for atomic number  78.
 Defaulting to unpruned grid for atomic number  78.
 Defaulting to unpruned grid for atomic number  78.
 Defaulting to unpruned grid for atomic number  78.
 Defaulting to unpruned grid for atomic number  78.
 Defaulting to unpruned grid for atomic number  78.
 Defaulting to unpruned grid for atomic number  78.
 Defaulting to unpruned grid for atomic number  78.
 Inv3:  Mode=1 IEnd=    13534128.
 Iteration    1 A*A^-1 deviation from unit magnitude is 6.44D-15 for    433.
 Iteration    1 A*A^-1 deviation from orthogonality  is 4.32D-15 for   1924    750.
 Iteration    1 A^-1*A deviation from unit magnitude is 6.44D-15 for    433.
 Iteration    1 A^-1*A deviation from orthogonality  is 3.54D-15 for   1755    761.
 E= -18335.0354382503    
 DIIS: error= 1.63D+00 at cycle   1 NSaved=   1.
 NSaved= 1 IEnMin= 1 EnMin= -18335.0354382503     IErMin= 1 ErrMin= 1.63D+00
 ErrMax= 1.63D+00  0.00D+00 EMaxC= 1.00D-01 BMatC= 3.20D+02 BMatP= 3.20D+02
 IDIUse=3 WtCom= 0.00D+00 WtEn= 1.00D+00
 Coeff-Com:  0.100D+01
 Coeff-En:   0.100D+01
 Coeff:      0.100D+01
 Gap=     0.964 Goal=   None    Shift=    0.000
 GapD=    0.964 DampG=2.000 DampE=0.125 DampFc=0.2500 IDamp=-1.
 Damping current iteration by 2.50D-01
 RMSDP=1.80D-02 MaxDP=2.12D+00              OVMax= 8.29D-01

 Cycle   2  Pass 1  IDiag  1:
 RMSU=  4.48D-03    CP:  1.03D+00
 E= -18334.9800247628     Delta-E=        0.055413487462 Rises=F Damp=T
 DIIS: error= 1.19D+00 at cycle   2 NSaved=   2.
 NSaved= 2 IEnMin= 1 EnMin= -18335.0354382503     IErMin= 2 ErrMin= 1.19D+00
 ErrMax= 1.19D+00  0.00D+00 EMaxC= 1.00D-01 BMatC= 1.52D+02 BMatP= 3.20D+02
 IDIUse=3 WtCom= 0.00D+00 WtEn= 1.00D+00
 Coeff-Com: -0.158D+01 0.258D+01
 Coeff-En:   0.504D+00 0.496D+00
 Coeff:      0.504D+00 0.496D+00
 Gap=    -0.017 Goal=   None    Shift=    0.000
 RMSDP=5.11D-03 MaxDP=5.73D-01 DE= 5.54D-02 OVMax= 1.00D+00

 Cycle   3  Pass 1  IDiag  1:
 RMSU=  4.64D-03    CP:  1.05D+00  5.26D-01
 E= -18335.5409750121     Delta-E=       -0.560950249281 Rises=F Damp=F
 DIIS: error= 2.32D-01 at cycle   3 NSaved=   3.
 NSaved= 3 IEnMin= 3 EnMin= -18335.5409750121     IErMin= 3 ErrMin= 2.32D-01
 ErrMax= 2.32D-01  0.00D+00 EMaxC= 1.00D-01 BMatC= 3.00D+01 BMatP= 1.52D+02
 IDIUse=3 WtCom= 0.00D+00 WtEn= 1.00D+00
 EnCoef did   100 forward-backward iterations
 Coeff-Com:  0.642D+00-0.634D+00 0.992D+00
 Coeff-En:   0.485D+00 0.529D-02 0.509D+00
 Coeff:      0.485D+00 0.529D-02 0.509D+00
 Gap=     0.034 Goal=   None    Shift=    0.000
 RMSDP=3.82D-03 MaxDP=4.83D-01 DE=-5.61D-01 OVMax= 7.38D-01

 Cycle   4  Pass 1  IDiag  1:
 RMSU=  1.47D-03    CP:  1.01D+00  1.54D-01  3.40D-01
 E= -18341.9378031214     Delta-E=       -6.396828109300 Rises=F Damp=F
 DIIS: error= 3.41D-02 at cycle   4 NSaved=   4.
 NSaved= 4 IEnMin= 4 EnMin= -18341.9378031214     IErMin= 4 ErrMin= 3.41D-02
 ErrMax= 3.41D-02  0.00D+00 EMaxC= 1.00D-01 BMatC= 7.87D-01 BMatP= 3.00D+01
 IDIUse=3 WtCom= 6.59D-01 WtEn= 3.41D-01
 Coeff-Com: -0.894D-01 0.170D+00 0.139D-01 0.905D+00
 Coeff-En:   0.000D+00 0.000D+00 0.325D-01 0.967D+00
 Coeff:     -0.590D-01 0.112D+00 0.202D-01 0.926D+00
 Gap=     0.116 Goal=   None    Shift=    0.000
 RMSDP=1.56D-03 MaxDP=1.67D-01 DE=-6.40D+00 OVMax= 3.70D-01

 Cycle   5  Pass 1  IDiag  1:
 RMSU=  8.01D-04    CP:  1.02D+00  2.41D-01  5.78D-01  5.59D-01
 E= -18341.4499048627     Delta-E=        0.487898258700 Rises=F Damp=F
 DIIS: error= 4.39D-02 at cycle   5 NSaved=   5.
 NSaved= 5 IEnMin= 4 EnMin= -18341.9378031214     IErMin= 4 ErrMin= 3.41D-02
 ErrMax= 4.39D-02  0.00D+00 EMaxC= 1.00D-01 BMatC= 1.24D+00 BMatP= 7.87D-01
 IDIUse=2 WtCom= 0.00D+00 WtEn= 1.00D+00
 Coeff-En:   0.000D+00 0.000D+00 0.000D+00 0.671D+00 0.329D+00
 Coeff:      0.000D+00 0.000D+00 0.000D+00 0.671D+00 0.329D+00
 Gap=     0.066 Goal=   None    Shift=    0.000
 RMSDP=8.34D-04 MaxDP=9.80D-02 DE= 4.88D-01 OVMax= 1.98D-01

 Cycle   6  Pass 1  IDiag  1:
 RMSU=  2.67D-04    CP:  1.02D+00  1.99D-01  4.63D-01  8.57D-01  5.86D-01
 E= -18342.0897856733     Delta-E=       -0.639880810621 Rises=F Damp=F
 DIIS: error= 1.90D-02 at cycle   6 NSaved=   6.
 NSaved= 6 IEnMin= 6 EnMin= -18342.0897856733     IErMin= 6 ErrMin= 1.90D-02
 ErrMax= 1.90D-02  0.00D+00 EMaxC= 1.00D-01 BMatC= 1.32D-01 BMatP= 7.87D-01
 IDIUse=3 WtCom= 8.10D-01 WtEn= 1.90D-01
 Coeff-Com:  0.101D-01-0.479D-02-0.288D-01 0.362D+00 0.225D+00 0.436D+00
 Coeff-En:   0.000D+00 0.000D+00 0.000D+00 0.342D+00 0.000D+00 0.658D+00
 Coeff:      0.816D-02-0.388D-02-0.233D-01 0.358D+00 0.182D+00 0.478D+00
 Gap=     0.104 Goal=   None    Shift=    0.000
 RMSDP=5.20D-04 MaxDP=3.63D-02 DE=-6.40D-01 OVMax= 1.55D-01

 Cycle   7  Pass 1  IDiag  1:
 RMSU=  2.12D-04    CP:  1.02D+00  1.78D-01  3.95D-01  9.27D-01  3.14D-01
                    CP:  1.10D-01
 E= -18342.1476436238     Delta-E=       -0.057857950451 Rises=F Damp=F
 DIIS: error= 1.08D-02 at cycle   7 NSaved=   7.
 NSaved= 7 IEnMin= 7 EnMin= -18342.1476436238     IErMin= 7 ErrMin= 1.08D-02
 ErrMax= 1.08D-02  0.00D+00 EMaxC= 1.00D-01 BMatC= 4.58D-02 BMatP= 1.32D-01
 IDIUse=3 WtCom= 8.92D-01 WtEn= 1.08D-01
 Coeff-Com: -0.482D-02 0.699D-02-0.714D-02 0.716D-01 0.254D-01 0.375D+00
 Coeff-Com:  0.532D+00
 Coeff-En:   0.000D+00 0.000D+00 0.000D+00 0.000D+00 0.000D+00 0.353D+00
 Coeff-En:   0.647D+00
 Coeff:     -0.430D-02 0.624D-02-0.637D-02 0.639D-01 0.227D-01 0.373D+00
 Coeff:      0.545D+00
 Gap=     0.095 Goal=   None    Shift=    0.000
 RMSDP=2.26D-04 MaxDP=1.29D-02 DE=-5.79D-02 OVMax= 5.62D-02

 Cycle   8  Pass 1  IDiag  1:
 RMSU=  8.49D-05    CP:  1.02D+00  1.84D-01  4.19D-01  9.08D-01  4.15D-01
                    CP:  5.03D-01  4.81D-01
 E= -18342.1798540907     Delta-E=       -0.032210466954 Rises=F Damp=F
 DIIS: error= 4.02D-03 at cycle   8 NSaved=   8.
 NSaved= 8 IEnMin= 8 EnMin= -18342.1798540907     IErMin= 8 ErrMin= 4.02D-03
 ErrMax= 4.02D-03  0.00D+00 EMaxC= 1.00D-01 BMatC= 4.44D-03 BMatP= 4.58D-02
 IDIUse=3 WtCom= 9.60D-01 WtEn= 4.02D-02
 Coeff-Com: -0.506D-02 0.704D-02-0.539D-02 0.485D-01 0.151D-01 0.285D+00
 Coeff-Com:  0.429D+00 0.226D+00
 Coeff-En:   0.000D+00 0.000D+00 0.000D+00 0.000D+00 0.000D+00 0.000D+00
 Coeff-En:   0.349D-01 0.965D+00
 Coeff:     -0.485D-02 0.676D-02-0.518D-02 0.465D-01 0.145D-01 0.273D+00
 Coeff:      0.413D+00 0.256D+00
 Gap=     0.094 Goal=   None    Shift=    0.000
 RMSDP=8.65D-05 MaxDP=3.71D-03 DE=-3.22D-02 OVMax= 2.35D-02

 Cycle   9  Pass 1  IDiag  1:
 RMSU=  2.10D-05    CP:  1.02D+00  1.84D-01  4.19D-01  9.07D-01  4.21D-01
                    CP:  4.50D-01  5.86D-01  6.33D-02
 E= -18342.1829440972     Delta-E=       -0.003090006470 Rises=F Damp=F
 DIIS: error= 1.16D-03 at cycle   9 NSaved=   9.
 NSaved= 9 IEnMin= 9 EnMin= -18342.1829440972     IErMin= 9 ErrMin= 1.16D-03
 ErrMax= 1.16D-03  0.00D+00 EMaxC= 1.00D-01 BMatC= 3.72D-04 BMatP= 4.44D-03
 IDIUse=3 WtCom= 9.88D-01 WtEn= 1.16D-02
 Coeff-Com: -0.625D-03 0.894D-03 0.758D-04 0.519D-02-0.674D-02 0.517D-01
 Coeff-Com:  0.587D-01 0.207D+00 0.684D+00
 Coeff-En:   0.000D+00 0.000D+00 0.000D+00 0.000D+00 0.000D+00 0.000D+00
 Coeff-En:   0.000D+00 0.148D+00 0.852D+00
 Coeff:     -0.618D-03 0.883D-03 0.749D-04 0.513D-02-0.666D-02 0.511D-01
 Coeff:      0.581D-01 0.207D+00 0.686D+00
 Gap=     0.094 Goal=   None    Shift=    0.000
 RMSDP=2.19D-05 MaxDP=1.49D-03 DE=-3.09D-03 OVMax= 5.30D-03

 Cycle  10  Pass 1  IDiag  1:
 RMSU=  8.44D-06    CP:  1.02D+00  1.84D-01  4.19D-01  9.06D-01  4.20D-01
                    CP:  4.78D-01  5.51D-01  2.51D-01  7.18D-01
 E= -18342.1832244370     Delta-E=       -0.000280339787 Rises=F Damp=F
 DIIS: error= 6.03D-05 at cycle  10 NSaved=  10.
 NSaved=10 IEnMin=10 EnMin= -18342.1832244370     IErMin=10 ErrMin= 6.03D-05
 ErrMax= 6.03D-05  0.00D+00 EMaxC= 1.00D-01 BMatC= 4.01D-06 BMatP= 3.72D-04
 IDIUse=1 WtCom= 1.00D+00 WtEn= 0.00D+00
 Coeff-Com: -0.185D-03 0.267D-03 0.183D-03 0.150D-02-0.387D-02 0.204D-01
 Coeff-Com:  0.226D-01 0.933D-01 0.331D+00 0.535D+00
 Coeff:     -0.185D-03 0.267D-03 0.183D-03 0.150D-02-0.387D-02 0.204D-01
 Coeff:      0.226D-01 0.933D-01 0.331D+00 0.535D+00
 Gap=     0.094 Goal=   None    Shift=    0.000
 RMSDP=7.61D-06 MaxDP=1.01D-03 DE=-2.80D-04 OVMax= 2.16D-03

 Cycle  11  Pass 1  IDiag  1:
 RMSU=  5.02D-06    CP:  1.02D+00  1.84D-01  4.19D-01  9.07D-01  4.19D-01
                    CP:  4.77D-01  5.52D-01  2.54D-01  7.67D-01  3.79D-01
 E= -18342.1832244278     Delta-E=        0.000000009128 Rises=F Damp=F
 DIIS: error= 7.93D-05 at cycle  11 NSaved=  11.
 NSaved=11 IEnMin=10 EnMin= -18342.1832244370     IErMin=10 ErrMin= 6.03D-05
 ErrMax= 7.93D-05  0.00D+00 EMaxC= 1.00D-01 BMatC= 3.86D-06 BMatP= 4.01D-06
 IDIUse=1 WtCom= 1.00D+00 WtEn= 0.00D+00
 Coeff-Com: -0.409D-04 0.593D-04 0.137D-03 0.352D-03-0.201D-02 0.807D-02
 Coeff-Com:  0.926D-02 0.387D-01 0.147D+00 0.463D+00 0.335D+00
 Coeff:     -0.409D-04 0.593D-04 0.137D-03 0.352D-03-0.201D-02 0.807D-02
 Coeff:      0.926D-02 0.387D-01 0.147D+00 0.463D+00 0.335D+00
 Gap=     0.094 Goal=   None    Shift=    0.000
 RMSDP=4.06D-06 MaxDP=2.40D-04 DE= 9.13D-09 OVMax= 1.01D-03

 Cycle  12  Pass 1  IDiag  1:
 RMSU=  1.67D-06    CP:  1.02D+00  1.84D-01  4.19D-01  9.08D-01  4.18D-01
                    CP:  4.76D-01  5.53D-01  2.52D-01  7.63D-01  5.31D-01
                    CP:  3.21D-01
 E= -18342.1832279518     Delta-E=       -0.000003523946 Rises=F Damp=F
 DIIS: error= 1.15D-05 at cycle  12 NSaved=  12.
 NSaved=12 IEnMin=12 EnMin= -18342.1832279518     IErMin=12 ErrMin= 1.15D-05
 ErrMax= 1.15D-05  0.00D+00 EMaxC= 1.00D-01 BMatC= 7.12D-08 BMatP= 3.86D-06
 IDIUse=1 WtCom= 1.00D+00 WtEn= 0.00D+00
 Coeff-Com: -0.585D-05 0.840D-05 0.499D-04 0.978D-04-0.675D-03 0.263D-02
 Coeff-Com:  0.328D-02 0.115D-01 0.464D-01 0.198D+00 0.179D+00 0.559D+00
 Coeff:     -0.585D-05 0.840D-05 0.499D-04 0.978D-04-0.675D-03 0.263D-02
 Coeff:      0.328D-02 0.115D-01 0.464D-01 0.198D+00 0.179D+00 0.559D+00
 Gap=     0.094 Goal=   None    Shift=    0.000
 RMSDP=7.26D-07 MaxDP=1.48D-04 DE=-3.52D-06 OVMax= 9.11D-05

 Cycle  13  Pass 1  IDiag  1:
 RMSU=  3.09D-07    CP:  1.02D+00  1.84D-01  4.19D-01  9.07D-01  4.18D-01
                    CP:  4.76D-01  5.53D-01  2.52D-01  7.62D-01  5.57D-01
                    CP:  3.79D-01  7.20D-01
 E= -18342.1832279855     Delta-E=       -0.000000033717 Rises=F Damp=F
 DIIS: error= 6.37D-06 at cycle  13 NSaved=  13.
 NSaved=13 IEnMin=13 EnMin= -18342.1832279855     IErMin=13 ErrMin= 6.37D-06
 ErrMax= 6.37D-06  0.00D+00 EMaxC= 1.00D-01 BMatC= 3.07D-08 BMatP= 7.12D-08
 IDIUse=1 WtCom= 1.00D+00 WtEn= 0.00D+00
 Coeff-Com:  0.545D-06-0.871D-06 0.141D-04 0.241D-04-0.186D-03 0.695D-03
 Coeff-Com:  0.104D-02 0.281D-02 0.127D-01 0.787D-01 0.838D-01 0.416D+00
 Coeff-Com:  0.405D+00
 Coeff:      0.545D-06-0.871D-06 0.141D-04 0.241D-04-0.186D-03 0.695D-03
 Coeff:      0.104D-02 0.281D-02 0.127D-01 0.787D-01 0.838D-01 0.416D+00
 Coeff:      0.405D+00
 Gap=     0.094 Goal=   None    Shift=    0.000
 RMSDP=1.94D-07 MaxDP=1.33D-05 DE=-3.37D-08 OVMax= 2.64D-05

 Cycle  14  Pass 1  IDiag  1:
 RMSU=  1.33D-07    CP:  1.02D+00  1.84D-01  4.19D-01  9.07D-01  4.18D-01
                    CP:  4.76D-01  5.53D-01  2.51D-01  7.62D-01  5.62D-01
                    CP:  3.78D-01  7.25D-01  5.68D-01
 E= -18342.1832280055     Delta-E=       -0.000000020023 Rises=F Damp=F
 DIIS: error= 2.24D-06 at cycle  14 NSaved=  14.
 NSaved=14 IEnMin=14 EnMin= -18342.1832280055     IErMin=14 ErrMin= 2.24D-06
 ErrMax= 2.24D-06  0.00D+00 EMaxC= 1.00D-01 BMatC= 3.77D-09 BMatP= 3.07D-08
 IDIUse=1 WtCom= 1.00D+00 WtEn= 0.00D+00
 Coeff-Com:  0.532D-06-0.820D-06 0.175D-05 0.218D-05-0.275D-04 0.697D-04
 Coeff-Com:  0.226D-03 0.362D-03 0.253D-02 0.278D-01 0.338D-01 0.214D+00
 Coeff-Com:  0.286D+00 0.435D+00
 Coeff:      0.532D-06-0.820D-06 0.175D-05 0.218D-05-0.275D-04 0.697D-04
 Coeff:      0.226D-03 0.362D-03 0.253D-02 0.278D-01 0.338D-01 0.214D+00
 Coeff:      0.286D+00 0.435D+00
 Gap=     0.094 Goal=   None    Shift=    0.000
 RMSDP=1.29D-07 MaxDP=2.22D-05 DE=-2.00D-08 OVMax= 1.94D-05

 Cycle  15  Pass 1  IDiag  1:
 RMSU=  5.90D-08    CP:  1.02D+00  1.84D-01  4.19D-01  9.07D-01  4.18D-01
                    CP:  4.76D-01  5.53D-01  2.52D-01  7.62D-01  5.57D-01
                    CP:  3.76D-01  7.61D-01  6.19D-01  4.39D-01
 E= -18342.1832280076     Delta-E=       -0.000000002052 Rises=F Damp=F
 DIIS: error= 2.05D-06 at cycle  15 NSaved=  15.
 NSaved=15 IEnMin=15 EnMin= -18342.1832280076     IErMin=15 ErrMin= 2.05D-06
 ErrMax= 2.05D-06  0.00D+00 EMaxC= 1.00D-01 BMatC= 1.84D-09 BMatP= 3.77D-09
 IDIUse=1 WtCom= 1.00D+00 WtEn= 0.00D+00
 Coeff-Com:  0.323D-06-0.500D-06-0.251D-06-0.939D-06-0.107D-05-0.254D-04
 Coeff-Com:  0.680D-04-0.940D-05 0.713D-03 0.146D-01 0.191D-01 0.135D+00
 Coeff-Com:  0.198D+00 0.378D+00 0.255D+00
 Coeff:      0.323D-06-0.500D-06-0.251D-06-0.939D-06-0.107D-05-0.254D-04
 Coeff:      0.680D-04-0.940D-05 0.713D-03 0.146D-01 0.191D-01 0.135D+00
 Coeff:      0.198D+00 0.378D+00 0.255D+00
 Gap=     0.094 Goal=   None    Shift=    0.000
 RMSDP=4.90D-08 MaxDP=4.18D-06 DE=-2.05D-09 OVMax= 9.69D-06

 Cycle  16  Pass 1  IDiag  1:
 RMSU=  1.48D-08    CP:  1.02D+00  1.84D-01  4.19D-01  9.07D-01  4.18D-01
                    CP:  4.76D-01  5.53D-01  2.52D-01  7.62D-01  5.56D-01
                    CP:  3.77D-01  7.68D-01  6.02D-01  5.34D-01  3.01D-01
 E= -18342.1832280082     Delta-E=       -0.000000000611 Rises=F Damp=F
 DIIS: error= 1.08D-07 at cycle  16 NSaved=  16.
 NSaved=16 IEnMin=16 EnMin= -18342.1832280082     IErMin=16 ErrMin= 1.08D-07
 ErrMax= 1.08D-07  0.00D+00 EMaxC= 1.00D-01 BMatC= 1.28D-11 BMatP= 1.84D-09
 IDIUse=1 WtCom= 1.00D+00 WtEn= 0.00D+00
 Coeff-Com:  0.834D-07-0.125D-06-0.218D-06-0.281D-06 0.204D-05-0.141D-04
 Coeff-Com:  0.428D-05-0.246D-04 0.750D-04 0.296D-02 0.408D-02 0.311D-01
 Coeff-Com:  0.482D-01 0.108D+00 0.112D+00 0.694D+00
 Coeff:      0.834D-07-0.125D-06-0.218D-06-0.281D-06 0.204D-05-0.141D-04
 Coeff:      0.428D-05-0.246D-04 0.750D-04 0.296D-02 0.408D-02 0.311D-01
 Coeff:      0.482D-01 0.108D+00 0.112D+00 0.694D+00
 Gap=     0.094 Goal=   None    Shift=    0.000
 RMSDP=9.89D-09 MaxDP=2.02D-06 DE=-6.11D-10 OVMax= 8.15D-07

 Cycle  17  Pass 1  IDiag  1:
 RMSU=  3.39D-09    CP:  1.02D+00  1.84D-01  4.19D-01  9.07D-01  4.18D-01
                    CP:  4.76D-01  5.53D-01  2.52D-01  7.62D-01  5.56D-01
                    CP:  3.77D-01  7.66D-01  6.05D-01  5.44D-01  3.40D-01
                    CP:  7.29D-01
 E= -18342.1832280091     Delta-E=       -0.000000000902 Rises=F Damp=F
 DIIS: error= 4.36D-08 at cycle  17 NSaved=  17.
 NSaved=17 IEnMin=17 EnMin= -18342.1832280091     IErMin=17 ErrMin= 4.36D-08
 ErrMax= 4.36D-08  0.00D+00 EMaxC= 1.00D-01 BMatC= 1.54D-12 BMatP= 1.28D-11
 IDIUse=1 WtCom= 1.00D+00 WtEn= 0.00D+00
 Coeff-Com:  0.458D-07-0.652D-07-0.107D-06-0.141D-06 0.107D-05-0.746D-05
 Coeff-Com:  0.352D-06-0.136D-04 0.226D-04 0.124D-02 0.176D-02 0.136D-01
 Coeff-Com:  0.214D-01 0.500D-01 0.563D-01 0.402D+00 0.454D+00
 Coeff:      0.458D-07-0.652D-07-0.107D-06-0.141D-06 0.107D-05-0.746D-05
 Coeff:      0.352D-06-0.136D-04 0.226D-04 0.124D-02 0.176D-02 0.136D-01
 Coeff:      0.214D-01 0.500D-01 0.563D-01 0.402D+00 0.454D+00
 Gap=     0.094 Goal=   None    Shift=    0.000
 RMSDP=3.33D-09 MaxDP=2.51D-07 DE=-9.02D-10 OVMax= 6.33D-07

 Error on total polarization charges =  0.01296
 SCF Done:  E(RPBE-PBE) =  -18342.1832280     A.U. after   17 cycles
            NFock= 17  Conv=0.33D-08     -V/T= 2.0169
 KE= 1.803806201703D+04 PE=-5.076523492955D+04 EE= 1.073809527077D+04
 Leave Link  502 at Wed Aug 13 13:29:54 2025, MaxMem=   939524096 cpu:            4818.1 elap:            1211.5
 (Enter /scr/programas/g16/l801.exe)
 DoSCS=F DFT=T ScalE2(SS,OS)=  1.000000  1.000000
 Range of M.O.s used for correlation:     1   588
 NBasis=   588 NAE=   109 NBE=   109 NFC=     0 NFV=     0
 NROrb=    588 NOA=   109 NOB=   109 NVA=   479 NVB=   479

 **** Warning!!: The largest alpha MO coefficient is  0.91303234D+02


 **** Warning!!: The smallest alpha delta epsilon is  0.94073659D-01

 Leave Link  801 at Wed Aug 13 13:29:54 2025, MaxMem=   939524096 cpu:               0.3 elap:               0.1
 (Enter /scr/programas/g16/l1002.exe)
 Minotr:  Closed shell wavefunction.
 NEqPCM:  Using equilibrium solvation (IEInf=0, Eps=  78.3553, EpsInf=   1.7778)
          Direct CPHF calculation.
          Differentiating once with respect to magnetic field using GIAOs.
          Electric field/nuclear overlap derivatives assumed to be zero.
          Requested convergence is 1.0D-08 RMS, and 1.0D-07 maximum.
          Secondary convergence is 1.0D-12 RMS, and 1.0D-12 maximum.
          NewPWx=T KeepS1=F KeepF1=F KeepIn=T MapXYZ=F SortEE=F KeepMc=T.
 Defaulting to unpruned grid for atomic number  78.
         5894 words used for storage of precomputed grid.
 Two-electron integral symmetry used by symmetrizing perturbed Fock matrices.
          MDV=     939524096 using IRadAn=       1.
          Solving linear equations simultaneously, MaxMat=     384.
 FoFJK:  IHMeth= 1 ICntrl=    6127 DoSepK=F KAlg= 0 I1Cent=           0 FoldK=F
 IRaf=         1 NMat=       1 IRICut=       1 DoRegI=T DoRafI=F ISym2E= 0 IDoP0=0 IntGTp=1.
 Defaulting to unpruned grid for atomic number  78.
 Defaulting to unpruned grid for atomic number  78.
 Defaulting to unpruned grid for atomic number  78.
 Defaulting to unpruned grid for atomic number  78.
 Defaulting to unpruned grid for atomic number  78.
 Defaulting to unpruned grid for atomic number  78.
 Defaulting to unpruned grid for atomic number  78.
 Defaulting to unpruned grid for atomic number  78.
          There are     3 degrees of freedom in the 1st order CPHF.  IDoFFX=0 NUNeed=     3.
      3 vectors produced by pass  0 Test12= 1.74D-12 3.33D-08 XBig12= 6.85D+01 2.30D+00.
 AX will form     3 AO Fock derivatives at one time.
 InvSVY:  IOpt=1 It=  1 EMax= 0.00D+00
 Solved reduced A of dimension     3 with     3 vectors.
 Calculating GIAO nuclear magnetic shielding tensors.
 SCF GIAO Magnetic shielding tensor (ppm):
      1  Pt   Isotropic = -3073.0047   Anisotropy =     5.5268
   XX= -3069.3797   YX=     0.6478   ZX=    -0.0760
   XY=    -0.1806   YY= -3073.7868   ZY=    -0.0351
   XZ=     1.1919   YZ=    -0.0402   ZZ= -3075.8476
   Eigenvalues: -3075.8969 -3073.7970 -3069.3202
      2  N    Isotropic =  -225.0730   Anisotropy =   364.7134
   XX=  -327.6295   YX=   115.5041   ZX=    92.0113
   XY=   115.4916   YY=   -21.8120   ZY=   -51.0824
   XZ=    91.9175   YZ=   -51.0193   ZZ=  -325.7774
   Eigenvalues:  -451.7721  -241.5161    18.0693
      3  O    Isotropic =  -376.5409   Anisotropy =   510.5654
   XX=  -516.5074   YX=   167.8855   ZX=   243.9597
   XY=   156.6953   YY=   -92.7401   ZY=  -108.0566
   XZ=    67.3771   YZ=   -52.1447   ZZ=  -520.3752
   Eigenvalues:  -721.3875  -372.0712   -36.1640
      4  O    Isotropic =  -376.3531   Anisotropy =   510.3565
   XX=  -530.7151   YX=   161.0930   ZX=    64.5561
   XY=   172.3863   YY=   -94.0344   ZY=   -50.3553
   XZ=   241.0976   YZ=  -106.3108   ZZ=  -504.3097
   Eigenvalues:  -720.9000  -372.0438   -36.1154
      5  N    Isotropic =  -225.1120   Anisotropy =   364.6945
   XX=  -161.1129   YX=   -85.0568   ZX=   127.5495
   XY=   -85.0262   YY=  -425.7934   ZY=   -18.7219
   XZ=   127.6138   YZ=   -18.7043   ZZ=   -88.4295
   Eigenvalues:  -451.7995  -241.5541    18.0177
      6  N    Isotropic =  -225.0791   Anisotropy =   364.7181
   XX=  -327.3338   YX=   115.9483   ZX=    91.8829
   XY=   115.8962   YY=   -22.1620   ZY=   -51.3898
   XZ=    91.7830   YZ=   -51.3617   ZZ=  -325.7414
   Eigenvalues:  -451.7855  -241.5181    18.0663
      7  O    Isotropic =  -376.5452   Anisotropy =   510.5658
   XX=  -516.0135   YX=   168.6203   ZX=   243.7272
   XY=   157.3347   YY=   -93.3098   ZY=  -108.7102
   XZ=    67.2036   YZ=   -52.5835   ZZ=  -520.3122
   Eigenvalues:  -721.4160  -372.0515   -36.1679
      8  O    Isotropic =  -376.3479   Anisotropy =   510.3460
   XX=  -530.2334   YX=   161.7363   ZX=    64.3450
   XY=   173.1402   YY=   -94.6116   ZY=   -50.8314
   XZ=   240.8554   YZ=  -106.9589   ZZ=  -504.1988
   Eigenvalues:  -720.9056  -372.0209   -36.1173
      9  O    Isotropic =  -376.5988   Anisotropy =   510.4203
   XX=  -271.8899   YX=  -198.9700   ZX=   150.4571
   XY=   -56.0437   YY=  -684.2699   ZY=   -82.6839
   XZ=   178.4626   YZ=    32.4366   ZZ=  -173.6367
   Eigenvalues:  -721.3895  -372.0883   -36.3187
     10  O    Isotropic =  -376.4095   Anisotropy =   510.2752
   XX=  -278.9364   YX=   -65.9063   ZX=   182.2536
   XY=  -208.8435   YY=  -675.5243   ZY=    41.9132
   XZ=   154.2617   YZ=   -73.2248   ZZ=  -174.7676
   Eigenvalues:  -720.9978  -372.0045   -36.2260
     11  N    Isotropic =  -225.1378   Anisotropy =   364.7579
   XX=  -186.7053   YX=   -31.2938   ZX=  -219.8789
   XY=   -31.2530   YY=  -227.3074   ZY=    68.5385
   XZ=  -219.8657   YZ=    68.4399   ZZ=  -261.4007
   Eigenvalues:  -451.8977  -241.5498    18.0341
     12  O    Isotropic =  -376.5194   Anisotropy =   510.5996
   XX=  -333.8495   YX=   -97.1171   ZX=  -297.9544
   XY=    20.8971   YY=  -352.9527   ZY=   158.2714
   XZ=  -348.0034   YZ=    24.0190   ZZ=  -442.7561
   Eigenvalues:  -721.5131  -371.9255   -36.1197
     13  O    Isotropic =  -376.4850   Anisotropy =   510.4924
   XX=  -327.5904   YX=    29.8073   ZX=  -344.6555
   XY=   -88.2248   YY=  -357.7501   ZY=    35.9984
   XZ=  -294.6389   YZ=   170.3394   ZZ=  -444.1145
   Eigenvalues:  -721.1814  -372.1168   -36.1567
     14  N    Isotropic =  -225.1101   Anisotropy =   364.7310
   XX=  -186.0937   YX=   -31.4853   ZX=  -219.7428
   XY=   -31.4408   YY=  -227.2358   ZY=    68.4585
   XZ=  -219.7399   YZ=    68.3576   ZZ=  -262.0008
   Eigenvalues:  -451.8384  -241.5358    18.0439
     15  O    Isotropic =  -376.4586   Anisotropy =   510.4732
   XX=  -326.6536   YX=    29.3765   ZX=  -344.4725
   XY=   -88.4510   YY=  -357.6468   ZY=    35.7997
   XZ=  -294.4355   YZ=   170.2526   ZZ=  -445.0753
   Eigenvalues:  -721.1100  -372.1226   -36.1431
     16  O    Isotropic =  -376.5000   Anisotropy =   510.5857
   XX=  -332.9118   YX=   -97.2912   ZX=  -297.7579
   XY=    20.5174   YY=  -352.8773   ZY=   158.2205
   XZ=  -347.8269   YZ=    23.8408   ZZ=  -443.7110
   Eigenvalues:  -721.4621  -371.9284   -36.1096
     17  N    Isotropic =  -225.0657   Anisotropy =   364.6577
   XX=  -160.9424   YX=   -84.8883   ZX=   127.6087
   XY=   -84.8700   YY=  -425.7756   ZY=   -18.5431
   XZ=   127.6801   YZ=   -18.5015   ZZ=   -88.4793
   Eigenvalues:  -451.6974  -241.5392    18.0394
     18  O    Isotropic =  -376.3803   Anisotropy =   510.2325
   XX=  -278.6636   YX=   -65.6001   ZX=   182.3267
   XY=  -208.3650   YY=  -675.5644   ZY=    42.1437
   XZ=   154.4237   YZ=   -72.9795   ZZ=  -174.9128
   Eigenvalues:  -720.8066  -372.1089   -36.2253
     19  O    Isotropic =  -376.5320   Anisotropy =   510.3480
   XX=  -271.7064   YX=  -198.6392   ZX=   150.6775
   XY=   -55.8036   YY=  -684.1292   ZY=   -82.3098
   XZ=   178.5661   YZ=    32.7722   ZZ=  -173.7604
   Eigenvalues:  -721.1220  -372.1740   -36.3000
 End of Minotr F.D. properties file   721 does not exist.
 End of Minotr F.D. properties file   722 does not exist.
 End of Minotr F.D. properties file   788 does not exist.
 Leave Link 1002 at Wed Aug 13 13:43:56 2025, MaxMem=   939524096 cpu:            3345.9 elap:             842.5
 (Enter /scr/programas/g16/l601.exe)
 Copying SCF densities to generalized density rwf, IOpCl= 0 IROHF=0.

 **********************************************************************

            Population analysis using the SCF Density.

 **********************************************************************

 Orbital symmetries:
       Occupied  (A) (A) (A) (A) (A) (A) (A) (A) (A) (A) (A) (A)
                 (A) (A) (A) (A) (A) (A) (A) (A) (A) (A) (A) (A)
                 (A) (A) (A) (A) (A) (A) (A) (A) (A) (A) (A) (A)
                 (A) (A) (A) (A) (A) (A) (A) (A) (A) (A) (A) (A)
                 (A) (A) (A) (A) (A) (A) (A) (A) (A) (A) (A) (A)
                 (A) (A) (A) (A) (A) (A) (A) (A) (A) (A) (A) (A)
                 (A) (A) (A) (A) (A) (A) (A) (A) (A) (A) (A) (A)
                 (A) (A) (A) (A) (A) (A) (A) (A) (A) (A) (A) (A)
                 (A) (A) (A) (A) (A) (A) (A) (A) (A) (A) (A) (A)
                 (A)
       Virtual   (A) (A) (A) (A) (A) (A) (A) (A) (A) (A) (A) (A)
                 (A) (A) (A) (A) (A) (A) (A) (A) (A) (A) (A) (A)
                 (A) (A) (A) (A) (A) (A) (A) (A) (A) (A) (A) (A)
                 (A) (A) (A) (A) (A) (A) (A) (A) (A) (A) (A) (A)
                 (A) (A) (A) (A) (A) (A) (A) (A) (A) (A) (A) (A)
                 (A) (A) (A) (A) (A) (A) (A) (A) (A) (A) (A) (A)
                 (A) (A) (A) (A) (A) (A) (A) (A) (A) (A) (A) (A)
                 (A) (A) (A) (A) (A) (A) (A) (A) (A) (A) (A) (A)
                 (A) (A) (A) (A) (A) (A) (A) (A) (A) (A) (A) (A)
                 (A) (A) (A) (A) (A) (A) (A) (A) (A) (A) (A) (A)
                 (A) (A) (A) (A) (A) (A) (A) (A) (A) (A) (A) (A)
                 (A) (A) (A) (A) (A) (A) (A) (A) (A) (A) (A) (A)
                 (A) (A) (A) (A) (A) (A) (A) (A) (A) (A) (A) (A)
                 (A) (A) (A) (A) (A) (A) (A) (A) (A) (A) (A) (A)
                 (A) (A) (A) (A) (A) (A) (A) (A) (A) (A) (A) (A)
                 (A) (A) (A) (A) (A) (A) (A) (A) (A) (A) (A) (A)
                 (A) (A) (A) (A) (A) (A) (A) (A) (A) (A) (A) (A)
                 (A) (A) (A) (A) (A) (A) (A) (A) (A) (A) (A) (A)
                 (A) (A) (A) (A) (A) (A) (A) (A) (A) (A) (A) (A)
                 (A) (A) (A) (A) (A) (A) (A) (A) (A) (A) (A) (A)
                 (A) (A) (A) (A) (A) (A) (A) (A) (A) (A) (A) (A)
                 (A) (A) (A) (A) (A) (A) (A) (A) (A) (A) (A) (A)
                 (A) (A) (A) (A) (A) (A) (A) (A) (A) (A) (A) (A)
                 (A) (A) (A) (A) (A) (A) (A) (A) (A) (A) (A) (A)
                 (A) (A) (A) (A) (A) (A) (A) (A) (A) (A) (A) (A)
                 (A) (A) (A) (A) (A) (A) (A) (A) (A) (A) (A) (A)
                 (A) (A) (A) (A) (A) (A) (A) (A) (A) (A) (A) (A)
                 (A) (A) (A) (A) (A) (A) (A) (A) (A) (A) (A) (A)
                 (A) (A) (A) (A) (A) (A) (A) (A) (A) (A) (A) (A)
                 (A) (A) (A) (A) (A) (A) (A) (A) (A) (A) (A) (A)
                 (A) (A) (A) (A) (A) (A) (A) (A) (A) (A) (A) (A)
                 (A) (A) (A) (A) (A) (A) (A) (A) (A) (A) (A) (A)
                 (A) (A) (A) (A) (A) (A) (A) (A) (A) (A) (A) (A)
                 (A) (A) (A) (A) (A) (A) (A) (A) (A) (A) (A) (A)
                 (A) (A) (A) (A) (A) (A) (A) (A) (A) (A) (A) (A)
                 (A) (A) (A) (A) (A) (A) (A) (A) (A) (A) (A) (A)
                 (A) (A) (A) (A) (A) (A) (A) (A) (A) (A) (A) (A)
                 (A) (A) (A) (A) (A) (A) (A) (A) (A) (A) (A) (A)
                 (A) (A) (A) (A) (A) (A) (A) (A) (A) (A) (A) (A)
                 (A) (A) (A) (A) (A) (A) (A) (A) (A) (A) (A)
 The electronic state is 1-A.
 Alpha  occ. eigenvalues -- **********-427.60783-414.93723-414.93723-414.93722
 Alpha  occ. eigenvalues --  -99.98811 -92.14474 -92.14473 -92.14473 -79.10385
 Alpha  occ. eigenvalues --  -79.10385 -79.10246 -79.10246 -79.10246 -20.90337
 Alpha  occ. eigenvalues --  -18.78005 -18.78004 -18.78004 -18.78004 -18.78003
 Alpha  occ. eigenvalues --  -18.78003 -18.78002 -18.78002 -18.78001 -18.78001
 Alpha  occ. eigenvalues --  -18.78000 -18.78000 -17.46778 -17.46778 -17.46777
 Alpha  occ. eigenvalues --  -14.16985 -14.16985 -14.16984 -14.16984 -14.16983
 Alpha  occ. eigenvalues --  -14.16982 -11.65210 -11.65210 -11.64715 -11.64714
 Alpha  occ. eigenvalues --  -11.64714  -3.20029  -3.20029  -3.20028  -3.19757
 Alpha  occ. eigenvalues --   -3.19757  -3.19756  -3.19414  -2.93263  -1.87263
 Alpha  occ. eigenvalues --   -1.87262  -1.87260  -1.12512  -1.12104  -1.12103
 Alpha  occ. eigenvalues --   -1.12101  -1.12039  -1.12037  -0.96002  -0.96001
 Alpha  occ. eigenvalues --   -0.95997  -0.95978  -0.95976  -0.95974  -0.58219
 Alpha  occ. eigenvalues --   -0.58215  -0.58213  -0.56118  -0.56118  -0.56116
 Alpha  occ. eigenvalues --   -0.48794  -0.48085  -0.48082  -0.47485  -0.47484
 Alpha  occ. eigenvalues --   -0.47478  -0.46604  -0.46600  -0.46587  -0.45218
 Alpha  occ. eigenvalues --   -0.45217  -0.45215  -0.45052  -0.45050  -0.45050
 Alpha  occ. eigenvalues --   -0.44045  -0.44043  -0.44041  -0.32040  -0.32038
 Alpha  occ. eigenvalues --   -0.32036  -0.29353  -0.29353  -0.28625  -0.27507
 Alpha  occ. eigenvalues --   -0.27507  -0.27502  -0.27007  -0.27005  -0.24779
 Alpha  occ. eigenvalues --   -0.24772  -0.24771  -0.23734  -0.23732  -0.23729
 Alpha  occ. eigenvalues --   -0.21992  -0.20002  -0.20002  -0.20001
 Alpha virt. eigenvalues --   -0.10594  -0.10589  -0.09063  -0.09061  -0.09060
 Alpha virt. eigenvalues --   -0.08004  -0.07998  -0.07997   0.03807   0.03808
 Alpha virt. eigenvalues --    0.03812   0.05636   0.05637   0.05639   0.06060
 Alpha virt. eigenvalues --    0.06060   0.09188   0.17763   0.18711   0.18720
 Alpha virt. eigenvalues --    0.18735   0.22820   0.22824   0.22827   0.23641
 Alpha virt. eigenvalues --    0.23645   0.25563   0.25578   0.25598   0.26857
 Alpha virt. eigenvalues --    0.26968   0.26973   0.26976   0.27923   0.28817
 Alpha virt. eigenvalues --    0.28820   0.28827   0.29016   0.29018   0.30951
 Alpha virt. eigenvalues --    0.30955   0.30959   0.33616   0.33622   0.33623
 Alpha virt. eigenvalues --    0.34962   0.34981   0.34989   0.36550   0.36553
 Alpha virt. eigenvalues --    0.36562   0.36567   0.38402   0.38405   0.42652
 Alpha virt. eigenvalues --    0.42655   0.42663   0.44174   0.44188   0.44193
 Alpha virt. eigenvalues --    0.45004   0.49823   0.49826   0.49832   0.50141
 Alpha virt. eigenvalues --    0.50143   0.50157   0.50195   0.51002   0.51003
 Alpha virt. eigenvalues --    0.51526   0.51550   0.51599   0.53219   0.53221
 Alpha virt. eigenvalues --    0.54242   0.54264   0.54273   0.55540   0.55560
 Alpha virt. eigenvalues --    0.55568   0.57585   0.57594   0.57618   0.59346
 Alpha virt. eigenvalues --    0.59385   0.59400   0.60239   0.63438   0.63446
 Alpha virt. eigenvalues --    0.63470   0.64341   0.64376   0.64388   0.65627
 Alpha virt. eigenvalues --    0.65631   0.66660   0.66682   0.66699   0.67404
 Alpha virt. eigenvalues --    0.67406   0.68081   0.72620   0.72627   0.72633
 Alpha virt. eigenvalues --    0.73398   0.73400   0.73665   0.73685   0.73715
 Alpha virt. eigenvalues --    0.75166   0.78769   0.78794   0.78825   0.81128
 Alpha virt. eigenvalues --    0.81141   0.81145   0.81160   0.82643   0.82652
 Alpha virt. eigenvalues --    0.82653   0.85565   0.86351   0.86356   0.86506
 Alpha virt. eigenvalues --    0.86550   0.86569   0.94857   0.94876   0.94914
 Alpha virt. eigenvalues --    0.95577   0.95590   0.95608   0.95649   0.95654
 Alpha virt. eigenvalues --    0.98338   0.98342   0.98347   0.98804   0.98821
 Alpha virt. eigenvalues --    0.98847   1.00386   1.00388   1.01614   1.01629
 Alpha virt. eigenvalues --    1.01635   1.02439   1.06484   1.06491   1.06509
 Alpha virt. eigenvalues --    1.07348   1.07361   1.07412   1.07731   1.07741
 Alpha virt. eigenvalues --    1.07763   1.10077   1.10083   1.10100   1.11317
 Alpha virt. eigenvalues --    1.11324   1.14200   1.22654   1.22668   1.22670
 Alpha virt. eigenvalues --    1.22691   1.22699   1.22718   1.26075   1.26100
 Alpha virt. eigenvalues --    1.26116   1.27517   1.27524   1.29738   1.32897
 Alpha virt. eigenvalues --    1.32914   1.32934   1.33406   1.33504   1.33538
 Alpha virt. eigenvalues --    1.34777   1.34788   1.37417   1.39657   1.39675
 Alpha virt. eigenvalues --    1.39699   1.41847   1.41858   1.41864   1.42435
 Alpha virt. eigenvalues --    1.42441   1.44933   1.48002   1.48016   1.48084
 Alpha virt. eigenvalues --    1.48099   1.48105   1.48479   1.48503   1.48516
 Alpha virt. eigenvalues --    1.50282   1.50288   1.52898   1.52939   1.52965
 Alpha virt. eigenvalues --    1.54679   1.61090   1.61098   1.61115   1.63094
 Alpha virt. eigenvalues --    1.63421   1.63471   1.63490   1.66928   1.66959
 Alpha virt. eigenvalues --    1.67023   1.68870   1.68959   1.69000   1.75789
 Alpha virt. eigenvalues --    1.77143   1.77167   1.77189   1.77601   1.77608
 Alpha virt. eigenvalues --    1.83242   1.83248   1.83255   1.83731   1.83740
 Alpha virt. eigenvalues --    1.83747   1.92313   1.93488   1.93496   1.93696
 Alpha virt. eigenvalues --    1.93724   1.93758   1.93785   1.93790   1.93829
 Alpha virt. eigenvalues --    2.00143   2.00147   2.00160   2.00632   2.09921
 Alpha virt. eigenvalues --    2.09929   2.28247   2.28288   2.28330   2.36368
 Alpha virt. eigenvalues --    2.36376   2.36386   2.38560   2.38578   2.38595
 Alpha virt. eigenvalues --    2.39117   2.43157   2.43175   2.43228   2.46529
 Alpha virt. eigenvalues --    2.46560   2.46642   2.50393   2.50395   2.50829
 Alpha virt. eigenvalues --    2.50869   2.50922   2.53141   2.53151   2.53183
 Alpha virt. eigenvalues --    2.55792   2.55954   2.56005   2.56029   2.56232
 Alpha virt. eigenvalues --    2.56237   2.58357   2.60316   2.60326   2.60336
 Alpha virt. eigenvalues --    2.60999   2.61002   2.61768   2.61802   2.61823
 Alpha virt. eigenvalues --    2.62923   2.62936   2.62955   2.65853   2.66743
 Alpha virt. eigenvalues --    2.66750   2.66759   2.69932   2.69939   2.70244
 Alpha virt. eigenvalues --    2.70266   2.70308   2.71235   2.71243   2.71268
 Alpha virt. eigenvalues --    2.78992   2.79033   2.79058   2.82104   2.82115
 Alpha virt. eigenvalues --    2.84976   2.87002   2.87026   2.87045   2.92676
 Alpha virt. eigenvalues --    2.92691   2.92700   3.01964   3.01986   3.02022
 Alpha virt. eigenvalues --    3.09358   3.09374   3.09406   3.18778   3.19172
 Alpha virt. eigenvalues --    3.19177   3.19201   3.21435   3.21443   3.21767
 Alpha virt. eigenvalues --    3.21777   3.21803   3.27349   3.34681   3.34689
 Alpha virt. eigenvalues --    3.34700   3.42035   3.42046   3.50315   3.50326
 Alpha virt. eigenvalues --    3.50341   3.51885   3.51897   3.51933   3.67202
 Alpha virt. eigenvalues --    3.68144   3.68200   3.68213   3.75922   3.75990
 Alpha virt. eigenvalues --    3.76041   3.81143   3.81163   3.89205   3.89233
 Alpha virt. eigenvalues --    3.89245   3.92111   3.92116   3.92874   3.95463
 Alpha virt. eigenvalues --    3.96539   3.96603   3.96635   4.04392   4.04480
 Alpha virt. eigenvalues --    4.04520   4.06739   4.06767   4.06813   4.12223
 Alpha virt. eigenvalues --    4.12232   4.17203   4.17305   4.17354   4.34498
 Alpha virt. eigenvalues --    4.42007   4.42012   4.42033   4.50690   4.50718
 Alpha virt. eigenvalues --    4.50752   4.51112   4.51214   4.51223   4.51242
 Alpha virt. eigenvalues --    4.55978   4.56000   4.56057   4.57258   4.57270
 Alpha virt. eigenvalues --    5.49742   5.49754   5.49766   5.59108   5.61057
 Alpha virt. eigenvalues --    5.61064   5.98973   5.99018   5.99081   6.99942
 Alpha virt. eigenvalues --    6.99964   7.00003   7.03195   7.03225   7.03281
 Alpha virt. eigenvalues --    7.06886   7.06893   7.08662   7.08668   7.08678
 Alpha virt. eigenvalues --    7.09562   8.44152   8.44154   8.44156   8.52925
 Alpha virt. eigenvalues --    8.52943   8.52958   8.63884   8.63897   8.67177
 Alpha virt. eigenvalues --    8.96987   9.97141   9.97174   9.97211  10.27709
 Alpha virt. eigenvalues --   10.27716  21.17632  21.17684  21.17743  23.08576
 Alpha virt. eigenvalues --   23.08579  23.08585  23.15004  23.15010  23.18376
 Alpha virt. eigenvalues --   26.01657  30.26651  30.26657  30.26680  30.31898
 Alpha virt. eigenvalues --   30.31907  30.31921  30.32534  30.32559  30.32612
 Alpha virt. eigenvalues --   30.34757  30.34763  30.40800  42.95850  42.95871
 Alpha virt. eigenvalues --   42.95894  43.14437  43.14441  82.05850  86.25741
 Alpha virt. eigenvalues --   86.25782  86.25830 123.23200 123.23203 123.23209
 Alpha virt. eigenvalues --  123.30147 123.30154 123.35733 163.02980 163.02988
 Alpha virt. eigenvalues --  163.03014 163.08203 163.08212 163.08227 163.09273
 Alpha virt. eigenvalues --  163.09297 163.09350 163.11559 163.11565 163.16779
 Alpha virt. eigenvalues --  257.17259 428.82010 428.82041 428.82079 772.85219
 Alpha virt. eigenvalues -- 2068.459585495.25209********************
          Condensed to atoms (all electrons):
               1          2          3          4          5          6
     1  Pt  77.531144  -0.055358   0.048463   0.048433  -0.055301  -0.055329
     2  N   -0.055358   6.067507   0.550704   0.550724   0.015044  -0.008666
     3  O    0.048463   0.550704   7.582543  -0.058011  -0.002547   0.000174
     4  O    0.048433   0.550724  -0.058011   7.582811  -0.000548   0.000174
     5  N   -0.055301   0.015044  -0.002547  -0.000548   6.067422   0.015107
     6  N   -0.055329  -0.008666   0.000174   0.000174   0.015107   6.067459
     7  O    0.048467   0.000174  -0.000000  -0.000002  -0.000547   0.550695
     8  O    0.048440   0.000174  -0.000002  -0.000000  -0.002666   0.550717
     9  O    0.048480  -0.003922   0.000010  -0.000005   0.550609  -0.003889
    10  O    0.048464  -0.003921   0.000044  -0.000005   0.550654  -0.003905
    11  N   -0.055282   0.015058  -0.003909  -0.003912   0.015063   0.015082
    12  O    0.048527  -0.002606   0.000037   0.000033  -0.003903  -0.000552
    13  O    0.048422  -0.000546  -0.000005  -0.000005  -0.003906  -0.002637
    14  N   -0.055339   0.015102  -0.003898  -0.003916   0.015073   0.015082
    15  O    0.048405  -0.002635   0.000039   0.000039  -0.003915  -0.000546
    16  O    0.048522  -0.000552  -0.000005  -0.000005  -0.003905  -0.002600
    17  N   -0.055233   0.015108  -0.000548  -0.002666  -0.008655   0.015025
    18  O    0.048438  -0.003905  -0.000005   0.000028   0.000174  -0.003919
    19  O    0.048452  -0.003890  -0.000005   0.000062   0.000174  -0.003916
               7          8          9         10         11         12
     1  Pt   0.048467   0.048440   0.048480   0.048464  -0.055282   0.048527
     2  N    0.000174   0.000174  -0.003922  -0.003921   0.015058  -0.002606
     3  O   -0.000000  -0.000002   0.000010   0.000044  -0.003909   0.000037
     4  O   -0.000002  -0.000000  -0.000005  -0.000005  -0.003912   0.000033
     5  N   -0.000547  -0.002666   0.550609   0.550654   0.015063  -0.003903
     6  N    0.550695   0.550717  -0.003889  -0.003905   0.015082  -0.000552
     7  O    7.582546  -0.057999  -0.000005  -0.000005  -0.003898  -0.000005
     8  O   -0.057999   7.582800   0.000063   0.000026  -0.003910  -0.000005
     9  O   -0.000005   0.000063   7.582699  -0.057993  -0.000549  -0.000005
    10  O   -0.000005   0.000026  -0.057993   7.582828  -0.002636   0.000046
    11  N   -0.003898  -0.003910  -0.000549  -0.002636   6.067464   0.550546
    12  O   -0.000005  -0.000005  -0.000005   0.000046   0.550546   7.582811
    13  O    0.000047   0.000031  -0.000005   0.000034   0.550728  -0.057969
    14  N   -0.003913  -0.003919  -0.002604  -0.000549  -0.008659   0.000174
    15  O   -0.000005  -0.000005   0.000040  -0.000005   0.000174  -0.000002
    16  O    0.000027   0.000041   0.000029  -0.000005   0.000174  -0.000000
    17  N   -0.002553  -0.000548   0.000174   0.000174   0.015071  -0.003907
    18  O    0.000042  -0.000005  -0.000002  -0.000000  -0.000549  -0.000005
    19  O    0.000015  -0.000005  -0.000000  -0.000002  -0.002598   0.000035
              13         14         15         16         17         18
     1  Pt   0.048422  -0.055339   0.048405   0.048522  -0.055233   0.048438
     2  N   -0.000546   0.015102  -0.002635  -0.000552   0.015108  -0.003905
     3  O   -0.000005  -0.003898   0.000039  -0.000005  -0.000548  -0.000005
     4  O   -0.000005  -0.003916   0.000039  -0.000005  -0.002666   0.000028
     5  N   -0.003906   0.015073  -0.003915  -0.003905  -0.008655   0.000174
     6  N   -0.002637   0.015082  -0.000546  -0.002600   0.015025  -0.003919
     7  O    0.000047  -0.003913  -0.000005   0.000027  -0.002553   0.000042
     8  O    0.000031  -0.003919  -0.000005   0.000041  -0.000548  -0.000005
     9  O   -0.000005  -0.002604   0.000040   0.000029   0.000174  -0.000002
    10  O    0.000034  -0.000549  -0.000005  -0.000005   0.000174  -0.000000
    11  N    0.550728  -0.008659   0.000174   0.000174   0.015071  -0.000549
    12  O   -0.057969   0.000174  -0.000002  -0.000000  -0.003907  -0.000005
    13  O    7.582672   0.000174  -0.000000  -0.000002  -0.003917  -0.000005
    14  N    0.000174   6.067495   0.550766   0.550569   0.015062  -0.002645
    15  O   -0.000000   0.550766   7.582654  -0.057992  -0.003903   0.000027
    16  O   -0.000002   0.550569  -0.057992   7.582801  -0.003901   0.000054
    17  N   -0.003917   0.015062  -0.003903  -0.003901   6.067298   0.550716
    18  O   -0.000005  -0.002645   0.000027   0.000054   0.550716   7.582909
    19  O    0.000033  -0.000548  -0.000005  -0.000005   0.550680  -0.058081
              19
     1  Pt   0.048452
     2  N   -0.003890
     3  O   -0.000005
     4  O    0.000062
     5  N    0.000174
     6  N   -0.003916
     7  O    0.000015
     8  O   -0.000005
     9  O   -0.000000
    10  O   -0.000002
    11  N   -0.002598
    12  O    0.000035
    13  O    0.000033
    14  N   -0.000548
    15  O   -0.000005
    16  O   -0.000005
    17  N    0.550680
    18  O   -0.058081
    19  O    7.582749
 Mulliken charges:
               1
     1  Pt   0.219185
     2  N   -0.143595
     3  O   -0.113079
     4  O   -0.113228
     5  N   -0.143426
     6  N   -0.143557
     7  O   -0.113082
     8  O   -0.113228
     9  O   -0.113125
    10  O   -0.113244
    11  N   -0.143459
    12  O   -0.113249
    13  O   -0.113143
    14  N   -0.143508
    15  O   -0.113128
    16  O   -0.113246
    17  N   -0.143478
    18  O   -0.113267
    19  O   -0.113143
 Sum of Mulliken charges =  -2.00000
 Mulliken charges with hydrogens summed into heavy atoms:
               1
     1  Pt   0.219185
     2  N   -0.143595
     3  O   -0.113079
     4  O   -0.113228
     5  N   -0.143426
     6  N   -0.143557
     7  O   -0.113082
     8  O   -0.113228
     9  O   -0.113125
    10  O   -0.113244
    11  N   -0.143459
    12  O   -0.113249
    13  O   -0.113143
    14  N   -0.143508
    15  O   -0.113128
    16  O   -0.113246
    17  N   -0.143478
    18  O   -0.113267
    19  O   -0.113143
 Electronic spatial extent (au):  <R**2>=           3956.6589
 Charge=             -2.0000 electrons
 Dipole moment (field-independent basis, Debye):
    X=              0.0008    Y=             -0.0010    Z=             -0.0017  Tot=              0.0022
 Quadrupole moment (field-independent basis, Debye-Ang):
   XX=           -167.0422   YY=           -167.0276   ZZ=           -167.0195
   XY=             -0.0015   XZ=             -0.0041   YZ=             -0.0114
 Traceless Quadrupole moment (field-independent basis, Debye-Ang):
   XX=             -0.0124   YY=              0.0022   ZZ=              0.0103
   XY=             -0.0015   XZ=             -0.0041   YZ=             -0.0114
 Octapole moment (field-independent basis, Debye-Ang**2):
  XXX=             -0.0074  YYY=             -0.0027  ZZZ=             -0.0130  XYY=              0.0067
  XXY=             -0.0063  XXZ=             -0.0116  XZZ=              0.0103  YZZ=             -0.0006
  YYZ=              0.0019  XYZ=             -0.0035
 Hexadecapole moment (field-independent basis, Debye-Ang**3):
 XXXX=          -1775.9160 YYYY=          -1847.6880 ZZZZ=          -1788.6453 XXXY=             20.7732
 XXXZ=             10.8327 YYYX=            -45.4087 YYYZ=              7.8606 ZZZX=            -18.1550
 ZZZY=             -0.4619 XXYY=           -588.7846 XXZZ=           -646.6696 YYZZ=           -573.2774
 XXYZ=             -7.4255 YYXZ=              7.3131 ZZXY=             24.6660
 N-N= 3.646894413742D+03 E-N=-5.076523491983D+04  KE= 1.803806201703D+04
 Calculating spin-rotation constants.
 Leave Link  601 at Wed Aug 13 13:44:14 2025, MaxMem=   939524096 cpu:              33.7 elap:              17.1
 (Enter /scr/programas/g16/l9999.exe)
 Unable to Open any file for archive entry.
 1\1\GINC-NQTCM15\SP\RPBEPBE\Gen\N6O12Pt1(2-)\NQTCM\13-Aug-2025\0\\#PBE
 PBE/gen scf=maxcycle=200 NMR=GIAO Scrf=(solvent=water)\\estrutura 68\\
 -2,1\Pt,0,-0.000009,-0.000011,0.000015\N,0,1.322789,0.315259,-1.634427
 \O,0,2.458954,0.690863,-1.396916\O,0,0.908477,0.112022,-2.763787\N,0,1
 .538043,0.572595,1.352199\N,0,-1.322666,-0.315405,1.634516\O,0,-2.4583
 09,-0.692656,1.397106\O,0,-0.908704,-0.110864,2.763773\O,0,2.283614,-0
 .291945,1.782541\O,0,1.631713,1.749584,1.659406\N,0,-0.640937,2.023361
 ,-0.128742\O,0,-0.149408,2.733958,-0.990108\O,0,-1.482194,2.416654,0.6
 62487\N,0,0.640842,-2.023378,0.128821\O,0,1.481003,-2.417174,-0.663296
 \O,0,0.150421,-2.733538,0.991155\N,0,-1.538061,-0.572264,-1.352308\O,0
 ,-1.632299,-1.749248,-1.659284\O,0,-2.283188,0.292308,-1.783269\\Versi
 on=EM64L-G16RevC.01\State=1-A\HF=-18342.183228\RMSD=3.333e-09\Dipole=0
 .0003148,0.0003962,0.0006812\Quadrupole=-0.0092536,0.0016008,0.0076528
 ,0.0011186,0.0030472,-0.0085054\PG=C01 [X(N6O12Pt1)]\\@
 The archive entry for this job was punched.


 IT CANNOT BE MY BEAUTY, FOR I HAVE NONE; AND IT CANNOT BE MY WIT,
 FOR HE HAS NOT ENOUGH TO KNOW THAT I HAVE ANY.
 -- CATHARINE SEDLEY, PUZZLED ABOUT WHY SHE WAS MISTRESS TO JAMES II
 Job cpu time:       0 days  2 hours 19 minutes 35.3 seconds.
 Elapsed time:       0 days  0 hours 35 minutes 15.8 seconds.
 File lengths (MBytes):  RWF=    275 Int=      0 D2E=      0 Chk=     28 Scr=      1
 Normal termination of Gaussian 16 at Wed Aug 13 13:44:14 2025.
