 Entering Gaussian System, Link 0=g09
 Input=estrutura21freq_LANL2DZ_TZVP.com
 Output=estrutura21freq_LANL2DZ_TZVP.log
 Initial command:
 /scr/programas/g09/l1.exe "/scr/diego/Gau-5889.inp" -scrdir="/scr/diego/"
 Entering Link 1 = /scr/programas/g09/l1.exe PID=      5891.
  
 Copyright (c) 1988,1990,1992,1993,1995,1998,2003,2009,2013,
            Gaussian, Inc.  All Rights Reserved.
  
 This is part of the Gaussian(R) 09 program.  It is based on
 the Gaussian(R) 03 system (copyright 2003, Gaussian, Inc.),
 the Gaussian(R) 98 system (copyright 1998, Gaussian, Inc.),
 the Gaussian(R) 94 system (copyright 1995, Gaussian, Inc.),
 the Gaussian 92(TM) system (copyright 1992, Gaussian, Inc.),
 the Gaussian 90(TM) system (copyright 1990, Gaussian, Inc.),
 the Gaussian 88(TM) system (copyright 1988, Gaussian, Inc.),
 the Gaussian 86(TM) system (copyright 1986, Carnegie Mellon
 University), and the Gaussian 82(TM) system (copyright 1983,
 Carnegie Mellon University). Gaussian is a federally registered
 trademark of Gaussian, Inc.
  
 This software contains proprietary and confidential information,
 including trade secrets, belonging to Gaussian, Inc.
  
 This software is provided under written license and may be
 used, copied, transmitted, or stored only in accord with that
 written license.
  
 The following legend is applicable only to US Government
 contracts under FAR:
  
                    RESTRICTED RIGHTS LEGEND
  
 Use, reproduction and disclosure by the US Government is
 subject to restrictions as set forth in subparagraphs (a)
 and (c) of the Commercial Computer Software - Restricted
 Rights clause in FAR 52.227-19.
  
 Gaussian, Inc.
 340 Quinnipiac St., Bldg. 40, Wallingford CT 06492
  
  
 ---------------------------------------------------------------
 Warning -- This program may not be used in any manner that
 competes with the business of Gaussian, Inc. or will provide
 assistance to any competitor of Gaussian, Inc.  The licensee
 of this program is prohibited from giving any competitor of
 Gaussian, Inc. access to this program.  By using this program,
 the user acknowledges that Gaussian, Inc. is engaged in the
 business of creating and licensing software in the field of
 computational chemistry and represents and warrants to the
 licensee that it is not a competitor of Gaussian, Inc. and that
 it will not use this program in any manner prohibited above.
 ---------------------------------------------------------------
  

 Cite this work as:
 Gaussian 09, Revision D.01,
 M. J. Frisch, G. W. Trucks, H. B. Schlegel, G. E. Scuseria, 
 M. A. Robb, J. R. Cheeseman, G. Scalmani, V. Barone, B. Mennucci, 
 G. A. Petersson, H. Nakatsuji, M. Caricato, X. Li, H. P. Hratchian, 
 A. F. Izmaylov, J. Bloino, G. Zheng, J. L. Sonnenberg, M. Hada, 
 M. Ehara, K. Toyota, R. Fukuda, J. Hasegawa, M. Ishida, T. Nakajima, 
 Y. Honda, O. Kitao, H. Nakai, T. Vreven, J. A. Montgomery, Jr., 
 J. E. Peralta, F. Ogliaro, M. Bearpark, J. J. Heyd, E. Brothers, 
 K. N. Kudin, V. N. Staroverov, T. Keith, R. Kobayashi, J. Normand, 
 K. Raghavachari, A. Rendell, J. C. Burant, S. S. Iyengar, J. Tomasi, 
 M. Cossi, N. Rega, J. M. Millam, M. Klene, J. E. Knox, J. B. Cross, 
 V. Bakken, C. Adamo, J. Jaramillo, R. Gomperts, R. E. Stratmann, 
 O. Yazyev, A. J. Austin, R. Cammi, C. Pomelli, J. W. Ochterski, 
 R. L. Martin, K. Morokuma, V. G. Zakrzewski, G. A. Voth, 
 P. Salvador, J. J. Dannenberg, S. Dapprich, A. D. Daniels, 
 O. Farkas, J. B. Foresman, J. V. Ortiz, J. Cioslowski, 
 and D. J. Fox, Gaussian, Inc., Wallingford CT, 2013.
 
 ******************************************
 Gaussian 09:  EM64L-G09RevD.01 24-Apr-2013
                30-Oct-2021 
 ******************************************
 %mem=15Gb
 %nproc=4
 Will use up to    4 processors via shared memory.
 ----------------------------------------------------------
 #PBEPBE/gen scf=maxcycle=200 NMR=GIAO Scrf=(solvent=water)
 ----------------------------------------------------------
 1/38=1/1;
 2/12=2,17=6,18=5,40=1/2;
 3/5=7,11=2,16=1,25=1,30=1,70=2201,72=1,74=1009/1,2,8,3;
 4//1;
 5/5=2,7=200,38=5,53=1/2;
 8/6=1,10=90,11=11/1;
 10/13=100,45=16/2;
 6/7=2,8=2,9=2,10=2,28=1/1;
 99/9=1/99;
 Leave Link    1 at Sat Oct 30 00:51:24 2021, MaxMem=  2013265920 cpu:         0.2
 (Enter /scr/programas/g09/l101.exe)
 ------------
 estrutura 21
 ------------
 Symbolic Z-matrix:
 Charge = -2 Multiplicity = 1
 Pt                    0.00058  -0.00128   0.34807 
 Br                   -0.22712   2.06144  -1.09492 
 Cl                   -1.78909   0.7802    1.75039 
 Cl                    1.5842    1.14658   1.74598 
 Cl                    0.21549  -1.95855   1.726 
 Br                   -1.67236  -1.21632  -1.10656 
 Br                    1.89303  -0.82683  -1.11079 
 
 NAtoms=      7 NQM=        7 NQMF=       0 NMMI=      0 NMMIF=      0
                NMic=       0 NMicF=      0.
                    Isotopes and Nuclear Properties:
 (Nuclear quadrupole moments (NQMom) in fm**2, nuclear magnetic moments (NMagM)
  in nuclear magnetons)

  Atom         1           2           3           4           5           6           7
 IAtWgt=         195          79          35          35          35          79          79
 AtmWgt= 194.9648000  78.9183361  34.9688527  34.9688527  34.9688527  78.9183361  78.9183361
 NucSpn=           1           3           3           3           3           3           3
 AtZEff=   0.0000000   0.0000000   0.0000000   0.0000000   0.0000000   0.0000000   0.0000000
 NQMom=    0.0000000  31.3000000  -8.1650000  -8.1650000  -8.1650000  31.3000000  31.3000000
 NMagM=    0.6095000   2.1063990   0.8218740   0.8218740   0.8218740   2.1063990   2.1063990
 AtZNuc=  78.0000000  35.0000000  17.0000000  17.0000000  17.0000000  35.0000000  35.0000000
 Leave Link  101 at Sat Oct 30 00:51:24 2021, MaxMem=  2013265920 cpu:         0.4
 (Enter /scr/programas/g09/l202.exe)
                          Input orientation:                          
 ---------------------------------------------------------------------
 Center     Atomic      Atomic             Coordinates (Angstroms)
 Number     Number       Type             X           Y           Z
 ---------------------------------------------------------------------
      1         78           0        0.000582   -0.001281    0.348067
      2         35           0       -0.227119    2.061439   -1.094917
      3         17           0       -1.789085    0.780198    1.750385
      4         17           0        1.584203    1.146576    1.745980
      5         17           0        0.215486   -1.958551    1.725995
      6         35           0       -1.672355   -1.216320   -1.106558
      7         35           0        1.893026   -0.826830   -1.110793
 ---------------------------------------------------------------------
                    Distance matrix (angstroms):
                    1          2          3          4          5
     1  Pt   0.000000
     2  Br   2.527620   0.000000
     3  Cl   2.404187   3.489564   0.000000
     4  Cl   2.404078   3.491211   3.393129   0.000000
     5  Cl   2.403284   4.930899   3.394060   3.393464   0.000000
     6  Br   2.528037   3.582254   3.487382   4.932081   3.483993
     7  Br   2.528072   3.582927   4.932223   3.485808   3.484580
                    6          7
     6  Br   0.000000
     7  Br   3.586595   0.000000
 Stoichiometry    Br3Cl3Pt(2-)
 Framework group  C1[X(Br3Cl3Pt)]
 Deg. of freedom    15
 Full point group                 C1      NOp   1
 Largest Abelian subgroup         C1      NOp   1
 Largest concise Abelian subgroup C1      NOp   1
                         Standard orientation:                         
 ---------------------------------------------------------------------
 Center     Atomic      Atomic             Coordinates (Angstroms)
 Number     Number       Type             X           Y           Z
 ---------------------------------------------------------------------
      1         78           0        0.000582   -0.001281    0.348067
      2         35           0       -0.227155    2.061435   -1.094917
      3         17           0       -1.789098    0.780167    1.750385
      4         17           0        1.584183    1.146604    1.745980
      5         17           0        0.215520   -1.958547    1.725995
      6         35           0       -1.672334   -1.216349   -1.106558
      7         35           0        1.893040   -0.826797   -1.110793
 ---------------------------------------------------------------------
 Rotational constants (GHZ):      0.3778822      0.3774754      0.3568110
 Leave Link  202 at Sat Oct 30 00:51:24 2021, MaxMem=  2013265920 cpu:         0.0
 (Enter /scr/programas/g09/l301.exe)
 General basis read from cards:  (5D, 7F)
 Centers:       3      4      5
 S 7 1.00
     Exponent=  7.7142817164D+04 Coefficients=  1.0600000000D-03
     Exponent=  2.8051933514D+04 Coefficients=  6.4000000000D-04
     Exponent=  1.0200703096D+04 Coefficients=  3.9600000000D-03
     Exponent=  3.7093465804D+03 Coefficients=  9.8300000000D-03
     Exponent=  1.3488533020D+03 Coefficients=  3.2690000000D-02
     Exponent=  4.9049210981D+02 Coefficients=  9.9520000000D-02
     Exponent=  1.7836076720D+02 Coefficients=  2.6555000000D-01
 S 1 1.00
     Exponent=  6.4858460801D+01 Coefficients=  1.0000000000D+00
 S 1 1.00
     Exponent=  2.3584894837D+01 Coefficients=  1.0000000000D+00
 S 1 1.00
     Exponent=  8.5763253951D+00 Coefficients=  1.0000000000D+00
 S 1 1.00
     Exponent=  3.1186637801D+00 Coefficients=  1.0000000000D+00
 S 1 1.00
     Exponent=  1.1340595564D+00 Coefficients=  1.0000000000D+00
 S 1 1.00
     Exponent=  4.1238529323D-01 Coefficients=  1.0000000000D+00
 S 1 1.00
     Exponent=  1.4995828845D-01 Coefficients=  1.0000000000D+00
 S 1 1.00
     Exponent=  5.4530286708D-02 Coefficients=  1.0000000000D+00
 P 5 1.00
     Exponent=  6.9498536057D+02 Coefficients=  2.0000000000D-03
     Exponent=  2.3166178686D+02 Coefficients=  8.9500000000D-03
     Exponent=  7.7220595619D+01 Coefficients=  5.1130000000D-02
     Exponent=  2.5740198540D+01 Coefficients=  2.1011000000D-01
     Exponent=  8.5800661799D+00 Coefficients=  4.9738000000D-01
 P 1 1.00
     Exponent=  2.8600220600D+00 Coefficients=  1.0000000000D+00
 P 1 1.00
     Exponent=  9.5334068665D-01 Coefficients=  1.0000000000D+00
 P 1 1.00
     Exponent=  3.1778022888D-01 Coefficients=  1.0000000000D+00
 P 1 1.00
     Exponent=  1.0592674296D-01 Coefficients=  1.0000000000D+00
 P 1 1.00
     Exponent=  3.5308914320D-02 Coefficients=  1.0000000000D+00
 D 1 1.00
     Exponent=  5.5696000000D-01 Coefficients=  1.0000000000D+00
 D 1 1.00
     Exponent=  1.5619100000D-01 Coefficients=  1.0000000000D+00
 ****
 Centers:       2      6      7
 S 7 1.00
     Exponent=  3.4867099512D+05 Coefficients=  2.4100000000D-03
     Exponent=  1.3946839805D+05 Coefficients=  1.2000000000D-04
     Exponent=  5.5787359218D+04 Coefficients=  5.8500000000D-03
     Exponent=  2.2314943687D+04 Coefficients=  8.2100000000D-03
     Exponent=  8.9259774750D+03 Coefficients=  2.4090000000D-02
     Exponent=  3.5703909900D+03 Coefficients=  5.7250000000D-02
     Exponent=  1.4281563960D+03 Coefficients=  1.4467000000D-01
 S 1 1.00
     Exponent=  5.7126255840D+02 Coefficients=  1.0000000000D+00
 S 1 1.00
     Exponent=  2.2850502336D+02 Coefficients=  1.0000000000D+00
 S 1 1.00
     Exponent=  9.1402009344D+01 Coefficients=  1.0000000000D+00
 S 1 1.00
     Exponent=  3.6560803737D+01 Coefficients=  1.0000000000D+00
 S 1 1.00
     Exponent=  1.4624321495D+01 Coefficients=  1.0000000000D+00
 S 1 1.00
     Exponent=  5.8497285980D+00 Coefficients=  1.0000000000D+00
 S 1 1.00
     Exponent=  2.3398914392D+00 Coefficients=  1.0000000000D+00
 S 1 1.00
     Exponent=  9.3595657568D-01 Coefficients=  1.0000000000D+00
 S 1 1.00
     Exponent=  3.7438263027D-01 Coefficients=  1.0000000000D+00
 S 1 1.00
     Exponent=  1.4975305211D-01 Coefficients=  1.0000000000D+00
 S 1 1.00
     Exponent=  5.9901220843D-02 Coefficients=  1.0000000000D+00
 P 5 1.00
     Exponent=  4.2715043612D+03 Coefficients=  2.0900000000D-03
     Exponent=  1.5532743132D+03 Coefficients=  5.5700000000D-03
     Exponent=  5.6482702297D+02 Coefficients=  3.0250000000D-02
     Exponent=  2.0539164472D+02 Coefficients=  1.2196000000D-01
     Exponent=  7.4687870806D+01 Coefficients=  3.7861000000D-01
 P 1 1.00
     Exponent=  2.7159225748D+01 Coefficients=  1.0000000000D+00
 P 1 1.00
     Exponent=  9.8760820901D+00 Coefficients=  1.0000000000D+00
 P 1 1.00
     Exponent=  3.5913025782D+00 Coefficients=  1.0000000000D+00
 P 1 1.00
     Exponent=  1.3059282103D+00 Coefficients=  1.0000000000D+00
 P 1 1.00
     Exponent=  4.7488298555D-01 Coefficients=  1.0000000000D+00
 P 1 1.00
     Exponent=  1.7268472202D-01 Coefficients=  1.0000000000D+00
 P 1 1.00
     Exponent=  6.2794444370D-02 Coefficients=  1.0000000000D+00
 P 1 1.00
     Exponent=  2.2834343407D-02 Coefficients=  1.0000000000D+00
 D 4 1.00
     Exponent=  1.5776624282D+02 Coefficients=  7.9800000000D-03
     Exponent=  5.2588747607D+01 Coefficients=  4.9870000000D-02
     Exponent=  1.7529582536D+01 Coefficients=  2.2405000000D-01
     Exponent=  5.8431941786D+00 Coefficients=  4.4250000000D-01
 D 1 1.00
     Exponent=  1.9477313929D+00 Coefficients=  1.0000000000D+00
 D 1 1.00
     Exponent=  6.4924379762D-01 Coefficients=  1.0000000000D+00
 F 1 1.00
     Exponent=  1.6480000000D+00 Coefficients=  1.0000000000D+00
 F 1 1.00
     Exponent=  4.5490000000D-01 Coefficients=  1.0000000000D+00
 ****
 Centers:       1
 S 9 1.00
     Exponent=  2.1644816090D+06 Coefficients=  1.2320000000D-02
     Exponent=  1.0822408045D+06 Coefficients=  1.2970000000D-02
     Exponent=  5.4112040224D+05 Coefficients=  2.6370000000D-02
     Exponent=  2.7056020112D+05 Coefficients=  9.0400000000D-03
     Exponent=  1.3528010056D+05 Coefficients=  3.4980000000D-02
     Exponent=  6.7640050280D+04 Coefficients=  1.2220000000D-02
     Exponent=  3.3820025140D+04 Coefficients=  6.0520000000D-02
     Exponent=  1.6910012570D+04 Coefficients=  6.4930000000D-02
     Exponent=  8.4550062850D+03 Coefficients=  1.3819000000D-01
 S 1 1.00
     Exponent=  4.2275031425D+03 Coefficients=  1.0000000000D+00
 S 1 1.00
     Exponent=  2.1137515713D+03 Coefficients=  1.0000000000D+00
 S 1 1.00
     Exponent=  1.0568757856D+03 Coefficients=  1.0000000000D+00
 S 1 1.00
     Exponent=  5.2843789281D+02 Coefficients=  1.0000000000D+00
 S 1 1.00
     Exponent=  2.6421894641D+02 Coefficients=  1.0000000000D+00
 S 1 1.00
     Exponent=  1.3210947320D+02 Coefficients=  1.0000000000D+00
 S 1 1.00
     Exponent=  6.6054736602D+01 Coefficients=  1.0000000000D+00
 S 1 1.00
     Exponent=  3.3027368301D+01 Coefficients=  1.0000000000D+00
 S 1 1.00
     Exponent=  1.6513684150D+01 Coefficients=  1.0000000000D+00
 S 1 1.00
     Exponent=  8.2568420752D+00 Coefficients=  1.0000000000D+00
 S 1 1.00
     Exponent=  4.1284210376D+00 Coefficients=  1.0000000000D+00
 S 1 1.00
     Exponent=  2.0642105188D+00 Coefficients=  1.0000000000D+00
 S 1 1.00
     Exponent=  1.0321052594D+00 Coefficients=  1.0000000000D+00
 S 1 1.00
     Exponent=  5.1605262970D-01 Coefficients=  1.0000000000D+00
 S 1 1.00
     Exponent=  2.5802631485D-01 Coefficients=  1.0000000000D+00
 S 1 1.00
     Exponent=  1.2901315743D-01 Coefficients=  1.0000000000D+00
 S 1 1.00
     Exponent=  6.4506578713D-02 Coefficients=  1.0000000000D+00
 P 7 1.00
     Exponent=  3.2357915258D+04 Coefficients=  5.0200000000D-03
     Exponent=  1.4381295670D+04 Coefficients=  2.0200000000D-03
     Exponent=  6.3916869645D+03 Coefficients=  1.8070000000D-02
     Exponent=  2.8407497620D+03 Coefficients=  3.6620000000D-02
     Exponent=  1.2625554498D+03 Coefficients=  1.1172000000D-01
     Exponent=  5.6113575545D+02 Coefficients=  2.5586000000D-01
     Exponent=  2.4939366909D+02 Coefficients=  4.2608000000D-01
 P 1 1.00
     Exponent=  1.1084163071D+02 Coefficients=  1.0000000000D+00
 P 1 1.00
     Exponent=  4.9262946981D+01 Coefficients=  1.0000000000D+00
 P 1 1.00
     Exponent=  2.1894643103D+01 Coefficients=  1.0000000000D+00
 P 1 1.00
     Exponent=  9.7309524900D+00 Coefficients=  1.0000000000D+00
 P 1 1.00
     Exponent=  4.3248677733D+00 Coefficients=  1.0000000000D+00
 P 1 1.00
     Exponent=  1.9221634548D+00 Coefficients=  1.0000000000D+00
 P 1 1.00
     Exponent=  8.5429486881D-01 Coefficients=  1.0000000000D+00
 P 1 1.00
     Exponent=  3.7968660836D-01 Coefficients=  1.0000000000D+00
 P 1 1.00
     Exponent=  1.6874960372D-01 Coefficients=  1.0000000000D+00
 P 1 1.00
     Exponent=  7.4999823874D-02 Coefficients=  1.0000000000D+00
 P 1 1.00
     Exponent=  3.3333255055D-02 Coefficients=  1.0000000000D+00
 D 5 1.00
     Exponent=  1.9119003508D+03 Coefficients=  4.3300000000D-03
     Exponent=  7.6476014031D+02 Coefficients=  1.7780000000D-02
     Exponent=  3.0590405613D+02 Coefficients=  8.9710000000D-02
     Exponent=  1.2236162245D+02 Coefficients=  3.1123000000D-01
     Exponent=  4.8944648980D+01 Coefficients=  5.3206000000D-01
 D 1 1.00
     Exponent=  1.9577859592D+01 Coefficients=  1.0000000000D+00
 D 1 1.00
     Exponent=  7.8311438368D+00 Coefficients=  1.0000000000D+00
 D 1 1.00
     Exponent=  3.1324575347D+00 Coefficients=  1.0000000000D+00
 D 1 1.00
     Exponent=  1.2529830139D+00 Coefficients=  1.0000000000D+00
 D 1 1.00
     Exponent=  5.0119320556D-01 Coefficients=  1.0000000000D+00
 D 1 1.00
     Exponent=  2.0047728222D-01 Coefficients=  1.0000000000D+00
 D 1 1.00
     Exponent=  8.0190912889D-02 Coefficients=  1.0000000000D+00
 D 1 1.00
     Exponent=  3.2076365156D-02 Coefficients=  1.0000000000D+00
 F 4 1.00
     Exponent=  8.2289680979D+01 Coefficients=  6.1870000000D-02
     Exponent=  2.9923520356D+01 Coefficients=  2.4823000000D-01
     Exponent=  1.0881280130D+01 Coefficients=  4.9956000000D-01
     Exponent=  3.9568291380D+00 Coefficients=  4.0380000000D-01
 F 1 1.00
     Exponent=  1.4388469593D+00 Coefficients=  1.0000000000D+00
 F 1 1.00
     Exponent=  5.2321707610D-01 Coefficients=  1.0000000000D+00
 G 1 1.00
     Exponent=  2.6700000000D+00 Coefficients=  1.0000000000D+00
 G 1 1.00
     Exponent=  9.0960000000D-01 Coefficients=  1.0000000000D+00
 ****
 Ernie: Thresh=  0.10000D-02 Tol=  0.10000D-05 Strict=F.
 There are   516 symmetry adapted cartesian basis functions of A   symmetry.
 There are   453 symmetry adapted basis functions of A   symmetry.
   453 basis functions,   758 primitive gaussians,   516 cartesian basis functions
   118 alpha electrons      118 beta electrons
       nuclear repulsion energy      4001.2633135905 Hartrees.
 IExCor= 1009 DFT=T Ex=PBE Corr=PBE ExCW=0 ScaHFX=  0.000000
 ScaDFX=  1.000000  1.000000  1.000000  1.000000 ScalE2=  1.000000  1.000000
 IRadAn=      0 IRanWt=     -1 IRanGd=            0 ICorTp=0 IEmpDi=  4
 NAtoms=    7 NActive=    7 NUniq=    7 SFac= 1.00D+00 NAtFMM=   60 NAOKFM=F Big=F
 Integral buffers will be    131072 words long.
 Raffenetti 2 integral format.
 Two-electron integral symmetry is turned on.
 ------------------------------------------------------------------------------
 Polarizable Continuum Model (PCM)
 =================================
 Model                : PCM (using non-symmetric T matrix).
 Atomic radii         : UFF (Universal Force Field).
 Polarization charges : Total charges.
 Charge compensation  : None.
 Solution method      : On-the-fly selection.
 Cavity type          : Scaled VdW (van der Waals Surface) (Alpha=1.100).
 Cavity algorithm     : GePol (No added spheres)
                        Default sphere list used, NSphG=    7.
                        Lebedev-Laikov grids with approx.  5.0 points / Ang**2.
                        Smoothing algorithm: Karplus/York (Gamma=1.0000).
                        Polarization charges: spherical gaussians, with
                                              point-specific exponents (IZeta= 3).
                        Self-potential: point-specific (ISelfS= 7).
                        Self-field    : sphere-specific E.n sum rule (ISelfD= 2).
 Solvent              : Water, Eps=  78.355300 Eps(inf)=   1.777849
 ------------------------------------------------------------------------------
 Spheres list:
 ISph  on   Nord     Re0    Alpha      Xe            Ye            Ze
    1  Pt      1    1.3770  1.100      0.000582     -0.001281      0.348067
    2  Br      2    2.0945  1.100     -0.227155      2.061435     -1.094917
    3  Cl      3    1.9735  1.100     -1.789098      0.780167      1.750385
    4  Cl      4    1.9735  1.100      1.584183      1.146604      1.745980
    5  Cl      5    1.9735  1.100      0.215520     -1.958547      1.725995
    6  Br      6    2.0945  1.100     -1.672334     -1.216349     -1.106558
    7  Br      7    2.0945  1.100      1.893040     -0.826797     -1.110793
 ------------------------------------------------------------------------------
 GePol: Number of generator spheres                  =       7
 GePol: Total number of spheres                      =       7
 GePol: Number of exposed spheres                    =       6 ( 85.71%)
 GePol: Number of points                             =    1448
 GePol: Average weight of points                     =       0.16
 GePol: Minimum weight of points                     =   0.18D-10
 GePol: Maximum weight of points                     =    0.21616
 GePol: Number of points with low weight             =      30
 GePol: Fraction of low-weight points (<1% of avg)   =       2.07%
 GePol: Cavity surface area                          =    232.412 Ang**2
 GePol: Cavity volume                                =    246.213 Ang**3
 Leave Link  301 at Sat Oct 30 00:51:24 2021, MaxMem=  2013265920 cpu:         0.6
 (Enter /scr/programas/g09/l302.exe)
 NPDir=0 NMtPBC=     1 NCelOv=     1 NCel=       1 NClECP=     1 NCelD=      1
         NCelK=      1 NCelE2=     1 NClLst=     1 CellRange=     0.0.
 One-electron integrals computed using PRISM.
 NBasis=   453 RedAO= T EigKep=  9.30D-05  NBF=   453
 NBsUse=   453 1.00D-06 EigRej= -1.00D+00 NBFU=   453
 Precomputing XC quadrature grid using
 IXCGrd= 4 IRadAn=           0 IRanWt=          -1 IRanGd=           0 AccXCQ= 0.00D+00.
 Defaulting to unpruned grid for atomic number  78.
 Generated NRdTot=       0 NPtTot=           0 NUsed=           0 NTot=          32
 NSgBfM=   451   451   451   451   451 MxSgAt=     7 MxSgA2=     7.
 Leave Link  302 at Sat Oct 30 00:51:25 2021, MaxMem=  2013265920 cpu:         2.6
 (Enter /scr/programas/g09/l308.exe)
 Leave Link  308 at Sat Oct 30 00:51:25 2021, MaxMem=  2013265920 cpu:         0.5
 (Enter /scr/programas/g09/l303.exe)
 DipDrv:  MaxL=1.
 Leave Link  303 at Sat Oct 30 00:51:25 2021, MaxMem=  2013265920 cpu:         0.3
 (Enter /scr/programas/g09/l401.exe)
 ExpMin= 2.28D-02 ExpMax= 2.16D+06 ExpMxC= 2.16D+06 IAcc=4 IRadAn=    199590 AccDes= 0.00D+00
 Harris functional with IExCor= 1009 and IRadAn=  199590 diagonalized for initial guess.
 HarFok:  IExCor= 1009 AccDes= 0.00D+00 IRadAn=    199590 IDoV= 1 UseB2=F ITyADJ=14
 ICtDFT=  3500011 ScaDFX=  1.000000  1.000000  1.000000  1.000000
 FoFCou: FMM=F IPFlag=           0 FMFlag=      100000 FMFlg1=           0
         NFxFlg=           0 DoJE=T BraDBF=F KetDBF=T FulRan=T
         wScrn=  0.000000 ICntrl=     500 IOpCl=  0 I1Cent=   200000004 NGrid=           0
         NMat0=    1 NMatS0=      1 NMatT0=    0 NMatD0=    1 NMtDS0=    0 NMtDT0=    0
 Petite list used in FoFCou.
 Harris En= -26208.0727655504    
 JPrj=0 DoOrth=F DoCkMO=F.
 Leave Link  401 at Sat Oct 30 00:51:36 2021, MaxMem=  2013265920 cpu:        41.8
 (Enter /scr/programas/g09/l502.exe)
 Closed shell SCF:
 Using DIIS extrapolation, IDIIS=  1040.
 Integral symmetry usage will be decided dynamically.
 IVT=      848126 IEndB=      848126 NGot=  2013265920 MDV=  2012724967
 LenX=  2012724967 LenY=  2012458195
 Requested convergence on RMS density matrix=1.00D-08 within 200 cycles.
 Requested convergence on MAX density matrix=1.00D-06.
 Requested convergence on             energy=1.00D-06.
 No special actions if energy rises.
 Fock matrices will be formed incrementally for  20 cycles.

 Cycle   1  Pass 1  IDiag  1:
 FoFJK:  IHMeth= 1 ICntrl=     500 DoSepK=F KAlg= 0 I1Cent=   0 FoldK=F
 IRaf= 760000000 NMat=   1 IRICut=       1 DoRegI=T DoRafI=F ISym2E= 0.
 FoFCou: FMM=F IPFlag=           0 FMFlag=      100000 FMFlg1=           0
         NFxFlg=           0 DoJE=T BraDBF=F KetDBF=F FulRan=T
         wScrn=  0.000000 ICntrl=     500 IOpCl=  0 I1Cent=           0 NGrid=           0
         NMat0=    1 NMatS0=      1 NMatT0=    0 NMatD0=    1 NMtDS0=    0 NMtDT0=    0
 Symmetry not used in FoFCou.
 Defaulting to unpruned grid for atomic number  78.
 Defaulting to unpruned grid for atomic number  78.
 Defaulting to unpruned grid for atomic number  78.
 Defaulting to unpruned grid for atomic number  78.
 Inv3:  Mode=1 IEnd=     6290112.
 Iteration    1 A*A^-1 deviation from unit magnitude is 6.00D-15 for    231.
 Iteration    1 A*A^-1 deviation from orthogonality  is 4.83D-15 for   1063    425.
 Iteration    1 A^-1*A deviation from unit magnitude is 5.22D-15 for     58.
 Iteration    1 A^-1*A deviation from orthogonality  is 1.66D-15 for   1262   1162.
 E= -26190.0060486720    
 DIIS: error= 9.35D-01 at cycle   1 NSaved=   1.
 NSaved= 1 IEnMin= 1 EnMin= -26190.0060486720     IErMin= 1 ErrMin= 9.35D-01
 ErrMax= 9.35D-01  0.00D+00 EMaxC= 1.00D-01 BMatC= 3.20D+02 BMatP= 3.20D+02
 IDIUse=3 WtCom= 0.00D+00 WtEn= 1.00D+00
 Coeff-Com:  0.100D+01
 Coeff-En:   0.100D+01
 Coeff:      0.100D+01
 Gap=     0.180 Goal=   None    Shift=    0.000
 GapD=    0.180 DampG=1.000 DampE=0.125 DampFc=0.1250 IDamp=-1.
 Damping current iteration by 1.25D-01
 RMSDP=1.09D-02 MaxDP=9.26D-01              OVMax= 8.46D-01

 Cycle   2  Pass 1  IDiag  1:
 RMSU=  1.35D-03    CP:  1.01D+00
 E= -26191.2787729240     Delta-E=       -1.272724252009 Rises=F Damp=T
 DIIS: error= 8.08D-01 at cycle   2 NSaved=   2.
 NSaved= 2 IEnMin= 2 EnMin= -26191.2787729240     IErMin= 2 ErrMin= 8.08D-01
 ErrMax= 8.08D-01  0.00D+00 EMaxC= 1.00D-01 BMatC= 2.29D+02 BMatP= 3.20D+02
 IDIUse=3 WtCom= 0.00D+00 WtEn= 1.00D+00
 Coeff-Com: -0.495D+01 0.595D+01
 Coeff-En:   0.000D+00 0.100D+01
 Coeff:      0.000D+00 0.100D+01
 Gap=    -0.007 Goal=   None    Shift=    0.000
 RMSDP=6.03D-03 MaxDP=3.65D-01 DE=-1.27D+00 OVMax= 9.41D-01

 Cycle   3  Pass 1  IDiag  1:
 RMSU=  4.10D-03    CP:  1.03D+00  3.00D+00
 E= -26188.4842942299     Delta-E=        2.794478694130 Rises=F Damp=F
 DIIS: error= 2.44D-01 at cycle   3 NSaved=   3.
 NSaved= 3 IEnMin= 2 EnMin= -26191.2787729240     IErMin= 3 ErrMin= 2.44D-01
 ErrMax= 2.44D-01  0.00D+00 EMaxC= 1.00D-01 BMatC= 2.89D+01 BMatP= 2.29D+02
 IDIUse=3 WtCom= 0.00D+00 WtEn= 1.00D+00
 EnCoef did   100 forward-backward iterations
 Coeff-Com:  0.143D+01-0.144D+01 0.101D+01
 Coeff-En:   0.526D+00 0.354D-01 0.439D+00
 Coeff:      0.526D+00 0.354D-01 0.439D+00
 Gap=    -0.012 Goal=   None    Shift=    0.000
 RMSDP=5.94D-03 MaxDP=4.00D-01 DE= 2.79D+00 OVMax= 6.62D-01

 Cycle   4  Pass 1  IDiag  1:
 RMSU=  2.48D-03    CP:  1.01D+00  9.66D-01  2.57D-01
 E= -26194.2334417227     Delta-E=       -5.749147492828 Rises=F Damp=F
 DIIS: error= 4.36D-02 at cycle   4 NSaved=   4.
 NSaved= 4 IEnMin= 4 EnMin= -26194.2334417227     IErMin= 4 ErrMin= 4.36D-02
 ErrMax= 4.36D-02  0.00D+00 EMaxC= 1.00D-01 BMatC= 1.75D+00 BMatP= 2.89D+01
 IDIUse=3 WtCom= 5.64D-01 WtEn= 4.36D-01
 Coeff-Com: -0.615D+00 0.766D+00-0.686D-01 0.917D+00
 Coeff-En:   0.000D+00 0.000D+00 0.120D+00 0.880D+00
 Coeff:     -0.347D+00 0.432D+00 0.135D-01 0.901D+00
 Gap=     0.129 Goal=   None    Shift=    0.000
 RMSDP=5.48D-03 MaxDP=4.53D-01 DE=-5.75D+00 OVMax= 6.35D-01

 Cycle   5  Pass 1  IDiag  1:
 RMSU=  2.83D-03    CP:  1.01D+00  3.00D+00  6.66D-01 -1.76D-01
 E= -26191.2672167556     Delta-E=        2.966224967113 Rises=F Damp=F
 DIIS: error= 6.58D-02 at cycle   5 NSaved=   5.
 NSaved= 5 IEnMin= 4 EnMin= -26194.2334417227     IErMin= 4 ErrMin= 4.36D-02
 ErrMax= 6.58D-02  0.00D+00 EMaxC= 1.00D-01 BMatC= 3.32D+00 BMatP= 1.75D+00
 IDIUse=2 WtCom= 0.00D+00 WtEn= 1.00D+00
 Coeff-En:   0.000D+00 0.000D+00 0.000D+00 0.768D+00 0.232D+00
 Coeff:      0.000D+00 0.000D+00 0.000D+00 0.768D+00 0.232D+00
 Gap=    -0.035 Goal=   None    Shift=    0.000
 RMSDP=3.90D-03 MaxDP=2.54D-01 DE= 2.97D+00 OVMax= 7.33D-01

 Cycle   6  Pass 1  IDiag  1:
 RMSU=  2.65D-03    CP:  1.01D+00  2.37D+00  4.04D-01  4.24D-01  3.82D-01
 E= -26193.6236666923     Delta-E=       -2.356449936695 Rises=F Damp=F
 DIIS: error= 4.04D-02 at cycle   6 NSaved=   6.
 NSaved= 6 IEnMin= 4 EnMin= -26194.2334417227     IErMin= 6 ErrMin= 4.04D-02
 ErrMax= 4.04D-02  0.00D+00 EMaxC= 1.00D-01 BMatC= 1.05D+00 BMatP= 1.75D+00
 IDIUse=3 WtCom= 5.96D-01 WtEn= 4.04D-01
 EnCoef did     5 forward-backward iterations
 Coeff-Com: -0.237D+00 0.288D+00-0.116D+00 0.550D+00 0.197D+00 0.318D+00
 Coeff-En:   0.000D+00 0.000D+00 0.000D+00 0.636D+00 0.843D-01 0.279D+00
 Coeff:     -0.141D+00 0.171D+00-0.690D-01 0.585D+00 0.152D+00 0.302D+00
 Gap=    -0.084 Goal=   None    Shift=    0.000
 RMSDP=2.97D-03 MaxDP=1.76D-01 DE=-2.36D+00 OVMax= 5.49D-01

 Cycle   7  Pass 1  IDiag  1:
 RMSU=  1.48D-03    CP:  1.01D+00  1.55D+00  3.17D-01  7.07D-01  2.47D-01
                    CP:  1.88D-01
 E= -26194.7679538804     Delta-E=       -1.144287188181 Rises=F Damp=F
 DIIS: error= 1.21D-02 at cycle   7 NSaved=   7.
 NSaved= 7 IEnMin= 7 EnMin= -26194.7679538804     IErMin= 7 ErrMin= 1.21D-02
 ErrMax= 1.21D-02  0.00D+00 EMaxC= 1.00D-01 BMatC= 8.88D-02 BMatP= 1.05D+00
 IDIUse=3 WtCom= 8.79D-01 WtEn= 1.21D-01
 EnCoef did     4 forward-backward iterations
 Coeff-Com: -0.472D-01 0.597D-01-0.357D-01 0.237D+00 0.321D-01 0.199D+00
 Coeff-Com:  0.555D+00
 Coeff-En:   0.000D+00 0.000D+00 0.000D+00 0.789D-01 0.000D+00 0.478D-01
 Coeff-En:   0.873D+00
 Coeff:     -0.415D-01 0.525D-01-0.314D-01 0.218D+00 0.282D-01 0.181D+00
 Coeff:      0.593D+00
 Gap=     0.063 Goal=   None    Shift=    0.000
 RMSDP=1.20D-03 MaxDP=7.89D-02 DE=-1.14D+00 OVMax= 2.15D-01

 Cycle   8  Pass 1  IDiag  1:
 RMSU=  9.97D-04    CP:  1.01D+00  1.47D+00  3.16D-01  7.57D-01  2.57D-01
                    CP:  2.14D-01  5.62D-01
 E= -26194.7981466616     Delta-E=       -0.030192781142 Rises=F Damp=F
 DIIS: error= 8.06D-03 at cycle   8 NSaved=   8.
 NSaved= 8 IEnMin= 8 EnMin= -26194.7981466616     IErMin= 8 ErrMin= 8.06D-03
 ErrMax= 8.06D-03  0.00D+00 EMaxC= 1.00D-01 BMatC= 6.50D-02 BMatP= 8.88D-02
 IDIUse=3 WtCom= 9.19D-01 WtEn= 8.06D-02
 Coeff-Com: -0.408D-01 0.479D-01-0.444D-02 0.512D-01-0.171D-01 0.935D-01
 Coeff-Com:  0.422D+00 0.448D+00
 Coeff-En:   0.000D+00 0.000D+00 0.000D+00 0.000D+00 0.000D+00 0.000D+00
 Coeff-En:   0.412D+00 0.588D+00
 Coeff:     -0.375D-01 0.440D-01-0.408D-02 0.471D-01-0.157D-01 0.860D-01
 Coeff:      0.421D+00 0.459D+00
 Gap=     0.067 Goal=   None    Shift=    0.000
 RMSDP=6.36D-04 MaxDP=3.43D-02 DE=-3.02D-02 OVMax= 1.17D-01

 Cycle   9  Pass 1  IDiag  1:
 RMSU=  3.10D-04    CP:  1.01D+00  1.55D+00  3.17D-01  7.36D-01  2.53D-01
                    CP:  2.30D-01  7.22D-01  5.15D-01
 E= -26194.8520034131     Delta-E=       -0.053856751525 Rises=F Damp=F
 DIIS: error= 1.94D-03 at cycle   9 NSaved=   9.
 NSaved= 9 IEnMin= 9 EnMin= -26194.8520034131     IErMin= 9 ErrMin= 1.94D-03
 ErrMax= 1.94D-03  0.00D+00 EMaxC= 1.00D-01 BMatC= 3.15D-03 BMatP= 6.50D-02
 IDIUse=3 WtCom= 9.81D-01 WtEn= 1.94D-02
 Coeff-Com: -0.141D-01 0.161D-01-0.153D-02 0.693D-02 0.534D-03 0.154D-01
 Coeff-Com:  0.119D+00 0.226D+00 0.631D+00
 Coeff-En:   0.000D+00 0.000D+00 0.000D+00 0.000D+00 0.000D+00 0.000D+00
 Coeff-En:   0.000D+00 0.365D-01 0.963D+00
 Coeff:     -0.138D-01 0.158D-01-0.150D-02 0.679D-02 0.524D-03 0.151D-01
 Coeff:      0.117D+00 0.223D+00 0.638D+00
 Gap=     0.065 Goal=   None    Shift=    0.000
 RMSDP=1.77D-04 MaxDP=9.40D-03 DE=-5.39D-02 OVMax= 2.99D-02

 Cycle  10  Pass 1  IDiag  1:
 RMSU=  9.00D-05    CP:  1.01D+00  1.54D+00  3.17D-01  7.50D-01  2.49D-01
                    CP:  2.34D-01  6.66D-01  6.28D-01  8.56D-01
 E= -26194.8537288956     Delta-E=       -0.001725482511 Rises=F Damp=F
 DIIS: error= 9.07D-04 at cycle  10 NSaved=  10.
 NSaved=10 IEnMin=10 EnMin= -26194.8537288956     IErMin=10 ErrMin= 9.07D-04
 ErrMax= 9.07D-04  0.00D+00 EMaxC= 1.00D-01 BMatC= 6.08D-04 BMatP= 3.15D-03
 IDIUse=3 WtCom= 9.91D-01 WtEn= 9.07D-03
 Coeff-Com: -0.617D-02 0.694D-02-0.329D-03-0.869D-03 0.221D-02-0.512D-03
 Coeff-Com:  0.491D-01 0.854D-01 0.337D+00 0.527D+00
 Coeff-En:   0.000D+00 0.000D+00 0.000D+00 0.000D+00 0.000D+00 0.000D+00
 Coeff-En:   0.000D+00 0.000D+00 0.242D+00 0.758D+00
 Coeff:     -0.611D-02 0.687D-02-0.326D-03-0.861D-03 0.219D-02-0.507D-03
 Coeff:      0.486D-01 0.846D-01 0.337D+00 0.529D+00
 Gap=     0.062 Goal=   None    Shift=    0.000
 RMSDP=9.60D-05 MaxDP=4.82D-03 DE=-1.73D-03 OVMax= 1.74D-02

 Cycle  11  Pass 1  IDiag  1:
 RMSU=  5.51D-05    CP:  1.01D+00  1.54D+00  3.17D-01  7.42D-01  2.53D-01
                    CP:  2.31D-01  6.94D-01  6.09D-01  8.40D-01  3.41D-01
 E= -26194.8542838383     Delta-E=       -0.000554942635 Rises=F Damp=F
 DIIS: error= 3.84D-04 at cycle  11 NSaved=  11.
 NSaved=11 IEnMin=11 EnMin= -26194.8542838383     IErMin=11 ErrMin= 3.84D-04
 ErrMax= 3.84D-04  0.00D+00 EMaxC= 1.00D-01 BMatC= 1.84D-04 BMatP= 6.08D-04
 IDIUse=3 WtCom= 9.96D-01 WtEn= 3.84D-03
 Coeff-Com: -0.342D-02 0.386D-02 0.105D-03-0.133D-02 0.273D-03-0.202D-03
 Coeff-Com:  0.252D-01 0.354D-01 0.166D+00 0.364D+00 0.410D+00
 Coeff-En:   0.000D+00 0.000D+00 0.000D+00 0.000D+00 0.000D+00 0.000D+00
 Coeff-En:   0.000D+00 0.000D+00 0.000D+00 0.217D+00 0.783D+00
 Coeff:     -0.341D-02 0.384D-02 0.105D-03-0.133D-02 0.272D-03-0.201D-03
 Coeff:      0.251D-01 0.353D-01 0.165D+00 0.364D+00 0.411D+00
 Gap=     0.063 Goal=   None    Shift=    0.000
 RMSDP=3.59D-05 MaxDP=2.75D-03 DE=-5.55D-04 OVMax= 5.49D-03

 Cycle  12  Pass 1  IDiag  1:
 RMSU=  1.21D-05    CP:  1.01D+00  1.54D+00  3.17D-01  7.43D-01  2.53D-01
                    CP:  2.31D-01  6.96D-01  6.01D-01  8.28D-01  5.80D-01
                    CP:  5.61D-01
 E= -26194.8544734308     Delta-E=       -0.000189592505 Rises=F Damp=F
 DIIS: error= 5.28D-05 at cycle  12 NSaved=  12.
 NSaved=12 IEnMin=12 EnMin= -26194.8544734308     IErMin=12 ErrMin= 5.28D-05
 ErrMax= 5.28D-05  0.00D+00 EMaxC= 1.00D-01 BMatC= 4.90D-06 BMatP= 1.84D-04
 IDIUse=1 WtCom= 1.00D+00 WtEn= 0.00D+00
 Coeff-Com: -0.897D-03 0.102D-02 0.770D-04-0.317D-03-0.772D-04 0.926D-04
 Coeff-Com:  0.493D-02 0.779D-02 0.486D-01 0.116D+00 0.162D+00 0.661D+00
 Coeff:     -0.897D-03 0.102D-02 0.770D-04-0.317D-03-0.772D-04 0.926D-04
 Coeff:      0.493D-02 0.779D-02 0.486D-01 0.116D+00 0.162D+00 0.661D+00
 Gap=     0.063 Goal=   None    Shift=    0.000
 RMSDP=8.56D-06 MaxDP=5.92D-04 DE=-1.90D-04 OVMax= 1.21D-03

 Cycle  13  Pass 1  IDiag  1:
 RMSU=  6.02D-06    CP:  1.01D+00  1.54D+00  3.17D-01  7.43D-01  2.52D-01
                    CP:  2.31D-01  6.94D-01  6.01D-01  8.32D-01  5.69D-01
                    CP:  5.64D-01  6.46D-01
 E= -26194.8544761155     Delta-E=       -0.000002684767 Rises=F Damp=F
 DIIS: error= 3.84D-05 at cycle  13 NSaved=  13.
 NSaved=13 IEnMin=13 EnMin= -26194.8544761155     IErMin=13 ErrMin= 3.84D-05
 ErrMax= 3.84D-05  0.00D+00 EMaxC= 1.00D-01 BMatC= 1.73D-06 BMatP= 4.90D-06
 IDIUse=1 WtCom= 1.00D+00 WtEn= 0.00D+00
 Coeff-Com: -0.473D-03 0.540D-03 0.245D-04-0.189D-03-0.297D-04 0.441D-04
 Coeff-Com:  0.119D-02 0.271D-02 0.209D-01 0.519D-01 0.768D-01 0.422D+00
 Coeff-Com:  0.425D+00
 Coeff:     -0.473D-03 0.540D-03 0.245D-04-0.189D-03-0.297D-04 0.441D-04
 Coeff:      0.119D-02 0.271D-02 0.209D-01 0.519D-01 0.768D-01 0.422D+00
 Coeff:      0.425D+00
 Gap=     0.063 Goal=   None    Shift=    0.000
 RMSDP=4.69D-06 MaxDP=3.62D-04 DE=-2.68D-06 OVMax= 8.10D-04

 Cycle  14  Pass 1  IDiag  1:
 RMSU=  2.36D-06    CP:  1.01D+00  1.54D+00  3.17D-01  7.43D-01  2.52D-01
                    CP:  2.31D-01  6.94D-01  6.01D-01  8.33D-01  5.71D-01
                    CP:  5.55D-01  7.93D-01  4.25D-01
 E= -26194.8544778116     Delta-E=       -0.000001696051 Rises=F Damp=F
 DIIS: error= 1.78D-05 at cycle  14 NSaved=  14.
 NSaved=14 IEnMin=14 EnMin= -26194.8544778116     IErMin=14 ErrMin= 1.78D-05
 ErrMax= 1.78D-05  0.00D+00 EMaxC= 1.00D-01 BMatC= 2.80D-07 BMatP= 1.73D-06
 IDIUse=1 WtCom= 1.00D+00 WtEn= 0.00D+00
 Coeff-Com: -0.154D-03 0.174D-03 0.134D-04-0.119D-03-0.121D-04 0.253D-04
 Coeff-Com: -0.182D-04 0.639D-03 0.696D-02 0.180D-01 0.313D-01 0.195D+00
 Coeff-Com:  0.297D+00 0.451D+00
 Coeff:     -0.154D-03 0.174D-03 0.134D-04-0.119D-03-0.121D-04 0.253D-04
 Coeff:     -0.182D-04 0.639D-03 0.696D-02 0.180D-01 0.313D-01 0.195D+00
 Coeff:      0.297D+00 0.451D+00
 Gap=     0.063 Goal=   None    Shift=    0.000
 RMSDP=1.63D-06 MaxDP=1.03D-04 DE=-1.70D-06 OVMax= 2.56D-04

 Cycle  15  Pass 1  IDiag  1:
 RMSU=  7.20D-07    CP:  1.01D+00  1.54D+00  3.17D-01  7.43D-01  2.52D-01
                    CP:  2.31D-01  6.94D-01  6.02D-01  8.33D-01  5.71D-01
                    CP:  5.56D-01  7.82D-01  5.54D-01  5.84D-01
 E= -26194.8544780861     Delta-E=       -0.000000274511 Rises=F Damp=F
 DIIS: error= 5.46D-06 at cycle  15 NSaved=  15.
 NSaved=15 IEnMin=15 EnMin= -26194.8544780861     IErMin=15 ErrMin= 5.46D-06
 ErrMax= 5.46D-06  0.00D+00 EMaxC= 1.00D-01 BMatC= 2.00D-08 BMatP= 2.80D-07
 IDIUse=1 WtCom= 1.00D+00 WtEn= 0.00D+00
 Coeff-Com: -0.462D-04 0.521D-04 0.277D-05-0.468D-04-0.534D-05 0.795D-05
 Coeff-Com: -0.131D-03-0.469D-04 0.996D-03 0.297D-02 0.865D-02 0.512D-01
 Coeff-Com:  0.113D+00 0.252D+00 0.571D+00
 Coeff:     -0.462D-04 0.521D-04 0.277D-05-0.468D-04-0.534D-05 0.795D-05
 Coeff:     -0.131D-03-0.469D-04 0.996D-03 0.297D-02 0.865D-02 0.512D-01
 Coeff:      0.113D+00 0.252D+00 0.571D+00
 Gap=     0.063 Goal=   None    Shift=    0.000
 RMSDP=3.70D-07 MaxDP=1.78D-05 DE=-2.75D-07 OVMax= 5.73D-05

 Cycle  16  Pass 1  IDiag  1:
 RMSU=  1.34D-07    CP:  1.01D+00  1.54D+00  3.17D-01  7.43D-01  2.52D-01
                    CP:  2.31D-01  6.94D-01  6.02D-01  8.33D-01  5.70D-01
                    CP:  5.60D-01  7.77D-01  5.51D-01  6.31D-01  7.52D-01
 E= -26194.8544781003     Delta-E=       -0.000000014170 Rises=F Damp=F
 DIIS: error= 1.43D-06 at cycle  16 NSaved=  16.
 NSaved=16 IEnMin=16 EnMin= -26194.8544781003     IErMin=16 ErrMin= 1.43D-06
 ErrMax= 1.43D-06  0.00D+00 EMaxC= 1.00D-01 BMatC= 1.47D-09 BMatP= 2.00D-08
 IDIUse=1 WtCom= 1.00D+00 WtEn= 0.00D+00
 Coeff-Com: -0.747D-05 0.846D-05 0.905D-06-0.954D-05-0.149D-05 0.199D-05
 Coeff-Com: -0.590D-04-0.487D-04 0.439D-03 0.115D-02 0.290D-02 0.175D-01
 Coeff-Com:  0.407D-01 0.102D+00 0.266D+00 0.569D+00
 Coeff:     -0.747D-05 0.846D-05 0.905D-06-0.954D-05-0.149D-05 0.199D-05
 Coeff:     -0.590D-04-0.487D-04 0.439D-03 0.115D-02 0.290D-02 0.175D-01
 Coeff:      0.407D-01 0.102D+00 0.266D+00 0.569D+00
 Gap=     0.063 Goal=   None    Shift=    0.000
 RMSDP=1.30D-07 MaxDP=6.68D-06 DE=-1.42D-08 OVMax= 2.15D-05

 Cycle  17  Pass 1  IDiag  1:
 RMSU=  4.08D-08    CP:  1.01D+00  1.54D+00  3.17D-01  7.43D-01  2.52D-01
                    CP:  2.31D-01  6.94D-01  6.02D-01  8.33D-01  5.70D-01
                    CP:  5.59D-01  7.77D-01  5.51D-01  6.34D-01  7.40D-01
                    CP:  6.61D-01
 E= -26194.8544781027     Delta-E=       -0.000000002448 Rises=F Damp=F
 DIIS: error= 2.83D-07 at cycle  17 NSaved=  17.
 NSaved=17 IEnMin=17 EnMin= -26194.8544781027     IErMin=17 ErrMin= 2.83D-07
 ErrMax= 2.83D-07  0.00D+00 EMaxC= 1.00D-01 BMatC= 8.23D-11 BMatP= 1.47D-09
 IDIUse=1 WtCom= 1.00D+00 WtEn= 0.00D+00
 Coeff-Com:  0.825D-07-0.105D-06 0.402D-07-0.957D-06-0.215D-06 0.554D-06
 Coeff-Com: -0.164D-04-0.193D-04 0.466D-04 0.198D-03 0.227D-03 0.187D-02
 Coeff-Com:  0.530D-02 0.174D-01 0.559D-01 0.249D+00 0.670D+00
 Coeff:      0.825D-07-0.105D-06 0.402D-07-0.957D-06-0.215D-06 0.554D-06
 Coeff:     -0.164D-04-0.193D-04 0.466D-04 0.198D-03 0.227D-03 0.187D-02
 Coeff:      0.530D-02 0.174D-01 0.559D-01 0.249D+00 0.670D+00
 Gap=     0.063 Goal=   None    Shift=    0.000
 RMSDP=2.79D-08 MaxDP=1.34D-06 DE=-2.45D-09 OVMax= 4.19D-06

 Cycle  18  Pass 1  IDiag  1:
 RMSU=  1.04D-08    CP:  1.01D+00  1.54D+00  3.17D-01  7.43D-01  2.52D-01
                    CP:  2.31D-01  6.94D-01  6.02D-01  8.33D-01  5.70D-01
                    CP:  5.59D-01  7.77D-01  5.50D-01  6.35D-01  7.48D-01
                    CP:  7.46D-01  7.79D-01
 E= -26194.8544781030     Delta-E=       -0.000000000295 Rises=F Damp=F
 DIIS: error= 6.47D-08 at cycle  18 NSaved=  18.
 NSaved=18 IEnMin=18 EnMin= -26194.8544781030     IErMin=18 ErrMin= 6.47D-08
 ErrMax= 6.47D-08  0.00D+00 EMaxC= 1.00D-01 BMatC= 3.42D-12 BMatP= 8.23D-11
 IDIUse=1 WtCom= 1.00D+00 WtEn= 0.00D+00
 Coeff-Com:  0.239D-06-0.289D-06-0.318D-07-0.287D-06-0.177D-07 0.237D-06
 Coeff-Com: -0.406D-05-0.601D-05-0.115D-04 0.147D-04-0.665D-04-0.152D-03
 Coeff-Com:  0.153D-03 0.150D-02 0.106D-01 0.725D-01 0.284D+00 0.631D+00
 Coeff:      0.239D-06-0.289D-06-0.318D-07-0.287D-06-0.177D-07 0.237D-06
 Coeff:     -0.406D-05-0.601D-05-0.115D-04 0.147D-04-0.665D-04-0.152D-03
 Coeff:      0.153D-03 0.150D-02 0.106D-01 0.725D-01 0.284D+00 0.631D+00
 Gap=     0.063 Goal=   None    Shift=    0.000
 RMSDP=6.00D-09 MaxDP=3.05D-07 DE=-2.95D-10 OVMax= 6.27D-07

 Error on total polarization charges =  0.03923
 SCF Done:  E(RPBE-PBE) =  -26194.8544781     A.U. after   18 cycles
            NFock= 18  Conv=0.60D-08     -V/T= 2.0129
 KE= 2.586186327175D+04 PE=-7.026409060610D+04 EE= 1.420610954266D+04
 Leave Link  502 at Sat Oct 30 00:58:48 2021, MaxMem=  2013265920 cpu:      1721.2
 (Enter /scr/programas/g09/l801.exe)
 Range of M.O.s used for correlation:     1   453
 NBasis=   453 NAE=   118 NBE=   118 NFC=     0 NFV=     0
 NROrb=    453 NOA=   118 NOB=   118 NVA=   335 NVB=   335

 **** Warning!!: The largest alpha MO coefficient is  0.26340566D+02


 **** Warning!!: The smallest alpha delta epsilon is  0.62717110D-01

 Leave Link  801 at Sat Oct 30 00:58:48 2021, MaxMem=  2013265920 cpu:         0.1
 (Enter /scr/programas/g09/l1002.exe)
 Minotr:  Closed shell wavefunction.
 NEqPCM:  Using equilibrium solvation (IEInf=0, Eps=  78.3553, EpsInf=   1.7778)
          Direct CPHF calculation.
          Differentiating once with respect to magnetic field using GIAOs.
          Electric field/nuclear overlap derivatives assumed to be zero.
          Requested convergence is 1.0D-08 RMS, and 1.0D-07 maximum.
          Secondary convergence is 1.0D-12 RMS, and 1.0D-12 maximum.
          NewPWx=T KeepS1=F KeepF1=F KeepIn=T MapXYZ=F SortEE=F KeepMc=T.
          MDV=    2013265407 using IRadAn=       2.
 Defaulting to unpruned grid for atomic number  78.
 Generate precomputed XC quadrature information.
          Solving linear equations simultaneously, MaxMat=       0.
 FoFJK:  IHMeth= 1 ICntrl=    6127 DoSepK=F KAlg= 0 I1Cent=   0 FoldK=F
 IRaf=         1 NMat=   1 IRICut=       1 DoRegI=T DoRafI=F ISym2E= 0.
 Defaulting to unpruned grid for atomic number  78.
 Defaulting to unpruned grid for atomic number  78.
 Defaulting to unpruned grid for atomic number  78.
 Defaulting to unpruned grid for atomic number  78.
          There are     3 degrees of freedom in the 1st order CPHF.  IDoFFX=0 NUNeed=     3.
      3 vectors produced by pass  0 Test12= 1.32D-12 3.33D-08 XBig12= 2.19D+01 2.61D+00.
 AX will form     3 AO Fock derivatives at one time.
 InvSVY:  IOpt=1 It=  1 EMax= 0.00D+00
 Solved reduced A of dimension     3 with     3 vectors.
 Calculating GIAO nuclear magnetic shielding tensors.
 SCF GIAO Magnetic shielding tensor (ppm):
      1  Pt   Isotropic =   701.6064   Anisotropy =     3.5078
   XX=   703.9183   YX=    -0.2313   ZX=    -0.2575
   XY=    -0.1853   YY=   701.6529   ZY=    -2.2212
   XZ=    -0.3780   YZ=    -1.1953   ZZ=   699.2479
   Eigenvalues:   698.3358   702.5384   703.9449
      2  Br   Isotropic =  1537.6278   Anisotropy =  2116.4691
   XX=   851.4704   YX=  -159.8103   ZX=   113.6421
   XY=  -160.7230   YY=  2286.8481   ZY= -1021.1488
   XZ=   102.4722   YZ=  -915.5795   ZZ=  1474.5648
   Eigenvalues:   830.1850   834.0911  2948.6072
      3  Cl   Isotropic =   556.0004   Anisotropy =   774.7163
   XX=   709.3274   YX=  -180.3446   ZX=  -323.8473
   XY=  -180.1636   YY=   377.9457   ZY=   140.1446
   XZ=  -361.9236   YZ=   157.1148   ZZ=   580.7280
   Eigenvalues:   296.0173   299.5060  1072.4779
      4  Cl   Isotropic =   557.7626   Anisotropy =   771.3517
   XX=   621.7389   YX=   232.2638   ZX=   284.7107
   XY=   233.0481   YY=   470.9969   ZY=   205.2989
   XZ=   318.3779   YZ=   229.2251   ZZ=   580.5520
   Eigenvalues:   298.8985   302.3922  1071.9970
      5  Cl   Isotropic =   558.1505   Anisotropy =   769.9168
   XX=   308.6947   YX=   -53.7255   ZX=    37.6977
   XY=   -53.8618   YY=   792.8734   ZY=  -344.5684
   XZ=    42.5688   YZ=  -388.4194   ZZ=   572.8835
   Eigenvalues:   300.2309   302.7923  1071.4284
      6  Br   Isotropic =  1529.9675   Anisotropy =  2127.7970
   XX=  1783.6778   YX=   698.4155   ZX=   835.1247
   XY=   699.9683   YY=  1330.1499   ZY=   608.6366
   XZ=   754.4398   YZ=   548.9936   ZZ=  1476.0749
   Eigenvalues:   819.3399   822.0638  2948.4989
      7  Br   Isotropic =  1530.7229   Anisotropy =  2126.4837
   XX=  2053.5919   YX=  -536.2563   ZX=  -948.8034
   XY=  -538.4458   YY=  1059.5470   ZY=   412.8912
   XZ=  -857.2511   YZ=   372.1734   ZZ=  1479.0299
   Eigenvalues:   818.6734   825.1167  2948.3787
 End of Minotr F.D. properties file   721 does not exist.
 End of Minotr F.D. properties file   722 does not exist.
 End of Minotr F.D. properties file   788 does not exist.
 Leave Link 1002 at Sat Oct 30 01:03:41 2021, MaxMem=  2013265920 cpu:      1166.0
 (Enter /scr/programas/g09/l601.exe)
 Copying SCF densities to generalized density rwf, IOpCl= 0 IROHF=0.

 **********************************************************************

            Population analysis using the SCF density.

 **********************************************************************

 Orbital symmetries:
       Occupied  (A) (A) (A) (A) (A) (A) (A) (A) (A) (A) (A) (A)
                 (A) (A) (A) (A) (A) (A) (A) (A) (A) (A) (A) (A)
                 (A) (A) (A) (A) (A) (A) (A) (A) (A) (A) (A) (A)
                 (A) (A) (A) (A) (A) (A) (A) (A) (A) (A) (A) (A)
                 (A) (A) (A) (A) (A) (A) (A) (A) (A) (A) (A) (A)
                 (A) (A) (A) (A) (A) (A) (A) (A) (A) (A) (A) (A)
                 (A) (A) (A) (A) (A) (A) (A) (A) (A) (A) (A) (A)
                 (A) (A) (A) (A) (A) (A) (A) (A) (A) (A) (A) (A)
                 (A) (A) (A) (A) (A) (A) (A) (A) (A) (A) (A) (A)
                 (A) (A) (A) (A) (A) (A) (A) (A) (A) (A)
       Virtual   (A) (A) (A) (A) (A) (A) (A) (A) (A) (A) (A) (A)
                 (A) (A) (A) (A) (A) (A) (A) (A) (A) (A) (A) (A)
                 (A) (A) (A) (A) (A) (A) (A) (A) (A) (A) (A) (A)
                 (A) (A) (A) (A) (A) (A) (A) (A) (A) (A) (A) (A)
                 (A) (A) (A) (A) (A) (A) (A) (A) (A) (A) (A) (A)
                 (A) (A) (A) (A) (A) (A) (A) (A) (A) (A) (A) (A)
                 (A) (A) (A) (A) (A) (A) (A) (A) (A) (A) (A) (A)
                 (A) (A) (A) (A) (A) (A) (A) (A) (A) (A) (A) (A)
                 (A) (A) (A) (A) (A) (A) (A) (A) (A) (A) (A) (A)
                 (A) (A) (A) (A) (A) (A) (A) (A) (A) (A) (A) (A)
                 (A) (A) (A) (A) (A) (A) (A) (A) (A) (A) (A) (A)
                 (A) (A) (A) (A) (A) (A) (A) (A) (A) (A) (A) (A)
                 (A) (A) (A) (A) (A) (A) (A) (A) (A) (A) (A) (A)
                 (A) (A) (A) (A) (A) (A) (A) (A) (A) (A) (A) (A)
                 (A) (A) (A) (A) (A) (A) (A) (A) (A) (A) (A) (A)
                 (A) (A) (A) (A) (A) (A) (A) (A) (A) (A) (A) (A)
                 (A) (A) (A) (A) (A) (A) (A) (A) (A) (A) (A) (A)
                 (A) (A) (A) (A) (A) (A) (A) (A) (A) (A) (A) (A)
                 (A) (A) (A) (A) (A) (A) (A) (A) (A) (A) (A) (A)
                 (A) (A) (A) (A) (A) (A) (A) (A) (A) (A) (A) (A)
                 (A) (A) (A) (A) (A) (A) (A) (A) (A) (A) (A) (A)
                 (A) (A) (A) (A) (A) (A) (A) (A) (A) (A) (A) (A)
                 (A) (A) (A) (A) (A) (A) (A) (A) (A) (A) (A) (A)
                 (A) (A) (A) (A) (A) (A) (A) (A) (A) (A) (A) (A)
                 (A) (A) (A) (A) (A) (A) (A) (A) (A) (A) (A) (A)
                 (A) (A) (A) (A) (A) (A) (A) (A) (A) (A) (A) (A)
                 (A) (A) (A) (A) (A) (A) (A) (A) (A) (A) (A) (A)
                 (A) (A) (A) (A) (A) (A) (A) (A) (A) (A) (A)
 The electronic state is 1-A.
 Alpha  occ. eigenvalues -- **********-478.59035-478.59034-478.59032-427.60808
 Alpha  occ. eigenvalues -- -414.93709-414.93709-414.93708-100.54029-100.54028
 Alpha  occ. eigenvalues -- -100.54023 -99.98809 -92.14465 -92.14464 -92.14464
 Alpha  occ. eigenvalues --  -79.10415 -79.10415 -79.10244 -79.10243 -79.10243
 Alpha  occ. eigenvalues --  -61.50853 -61.50852 -61.50851 -55.69367 -55.69365
 Alpha  occ. eigenvalues --  -55.69364 -55.69028 -55.69028 -55.69028 -55.69028
 Alpha  occ. eigenvalues --  -55.69026 -55.69026 -20.90229 -17.46666 -17.46665
 Alpha  occ. eigenvalues --  -17.46664 -11.65170 -11.65170 -11.64561 -11.64560
 Alpha  occ. eigenvalues --  -11.64560  -9.11837  -9.11836  -9.11831  -8.33689
 Alpha  occ. eigenvalues --   -8.33689  -8.33687  -6.95809  -6.95807  -6.95802
 Alpha  occ. eigenvalues --   -6.94939  -6.94939  -6.94938  -6.94938  -6.94933
 Alpha  occ. eigenvalues --   -6.94932  -6.24643  -6.24642  -6.24641  -6.23666
 Alpha  occ. eigenvalues --   -6.23666  -6.23665  -6.23665  -6.23663  -6.23663
 Alpha  occ. eigenvalues --   -3.19949  -3.19948  -3.19946  -3.19613  -3.19613
 Alpha  occ. eigenvalues --   -3.19612  -3.19189  -2.92798  -2.45551  -2.45549
 Alpha  occ. eigenvalues --   -2.45548  -2.45304  -2.45303  -2.45303  -2.45302
 Alpha  occ. eigenvalues --   -2.45301  -2.45301  -2.44585  -2.44585  -2.44585
 Alpha  occ. eigenvalues --   -2.44585  -2.44582  -2.44582  -1.86663  -1.86661
 Alpha  occ. eigenvalues --   -1.86659  -0.69979  -0.68879  -0.68872  -0.66651
 Alpha  occ. eigenvalues --   -0.66057  -0.66054  -0.37720  -0.37713  -0.34610
 Alpha  occ. eigenvalues --   -0.34605  -0.34602  -0.33389  -0.28982  -0.28979
 Alpha  occ. eigenvalues --   -0.28966  -0.24097  -0.24036  -0.24036  -0.23892
 Alpha  occ. eigenvalues --   -0.23888  -0.23858  -0.23130  -0.23121  -0.23117
 Alpha  occ. eigenvalues --   -0.21742  -0.21740  -0.21699
 Alpha virt. eigenvalues --   -0.15427  -0.15419  -0.01045   0.00735   0.00736
 Alpha virt. eigenvalues --    0.00936   0.03027   0.03028   0.03149   0.03150
 Alpha virt. eigenvalues --    0.03287   0.05325   0.05326   0.05530   0.05704
 Alpha virt. eigenvalues --    0.06778   0.06780   0.06942   0.08893   0.08898
 Alpha virt. eigenvalues --    0.09604   0.10090   0.10095   0.10301   0.10971
 Alpha virt. eigenvalues --    0.11313   0.11320   0.11891   0.11901   0.12422
 Alpha virt. eigenvalues --    0.16223   0.16226   0.16522   0.17709   0.17714
 Alpha virt. eigenvalues --    0.18804   0.18806   0.19791   0.19800   0.19842
 Alpha virt. eigenvalues --    0.20698   0.20942   0.22229   0.23694   0.23708
 Alpha virt. eigenvalues --    0.24955   0.26225   0.26240   0.26519   0.26524
 Alpha virt. eigenvalues --    0.27127   0.27832   0.27842   0.29496   0.31689
 Alpha virt. eigenvalues --    0.32262   0.32271   0.34076   0.34089   0.34633
 Alpha virt. eigenvalues --    0.35559   0.35563   0.36188   0.36955   0.36971
 Alpha virt. eigenvalues --    0.37180   0.37751   0.37764   0.47870   0.49109
 Alpha virt. eigenvalues --    0.49124   0.50994   0.51163   0.52416   0.52427
 Alpha virt. eigenvalues --    0.56630   0.56658   0.65252   0.65278   0.65666
 Alpha virt. eigenvalues --    0.69845   0.69852   0.73074   0.73078   0.74327
 Alpha virt. eigenvalues --    0.78948   0.80463   0.81062   0.81094   0.83209
 Alpha virt. eigenvalues --    0.83221   0.86817   0.87140   0.87166   0.88237
 Alpha virt. eigenvalues --    0.89523   0.90954   0.91063   0.91075   0.93238
 Alpha virt. eigenvalues --    0.93243   0.93580   0.93875   0.96711   0.96730
 Alpha virt. eigenvalues --    0.97839   1.00612   1.00624   1.01989   1.01992
 Alpha virt. eigenvalues --    1.02303   1.04392   1.04411   1.04424   1.07047
 Alpha virt. eigenvalues --    1.07433   1.07959   1.07969   1.09735   1.09738
 Alpha virt. eigenvalues --    1.10691   1.11422   1.11437   1.13320   1.13743
 Alpha virt. eigenvalues --    1.13768   1.13905   1.15184   1.15196   1.18365
 Alpha virt. eigenvalues --    1.18393   1.18878   1.21179   1.24845   1.24856
 Alpha virt. eigenvalues --    1.25021   1.25376   1.25388   1.26870   1.26896
 Alpha virt. eigenvalues --    1.29181   1.29833   1.30764   1.30783   1.32612
 Alpha virt. eigenvalues --    1.32631   1.34200   1.38033   1.38041   1.39874
 Alpha virt. eigenvalues --    1.44338   1.45947   1.45964   1.47215   1.49934
 Alpha virt. eigenvalues --    1.49973   1.59175   1.66134   1.66161   1.80573
 Alpha virt. eigenvalues --    1.80586   1.81620   1.89276   1.92009   1.92013
 Alpha virt. eigenvalues --    1.94535   1.95145   1.95168   2.16515   2.16552
 Alpha virt. eigenvalues --    2.17805   2.68827   2.68850   2.68952   2.89631
 Alpha virt. eigenvalues --    2.89644   3.07137   3.11221   3.11234   3.11508
 Alpha virt. eigenvalues --    3.12848   3.13082   3.13103   3.17512   3.17522
 Alpha virt. eigenvalues --    3.20563   3.28362   3.30149   3.30169   3.58737
 Alpha virt. eigenvalues --    3.58797   3.60503   3.66949   3.72681   3.73038
 Alpha virt. eigenvalues --    3.73063   3.87817   3.93983   3.94018   4.04587
 Alpha virt. eigenvalues --    4.04603   4.04780   4.06274   4.07074   4.07096
 Alpha virt. eigenvalues --    4.22159   4.25536   4.25589   4.30682   4.30691
 Alpha virt. eigenvalues --    4.30850   4.30859   4.31057   4.32048   4.32529
 Alpha virt. eigenvalues --    4.32539   4.32634   4.32853   4.35574   4.35617
 Alpha virt. eigenvalues --    4.37264   4.37564   4.37570   4.40909   4.41208
 Alpha virt. eigenvalues --    4.41226   4.45562   4.45575   4.47974   5.57863
 Alpha virt. eigenvalues --    5.58574   5.58602   5.88368   5.88435   5.88442
 Alpha virt. eigenvalues --    5.90196   5.91492   5.97764   5.97783   5.99680
 Alpha virt. eigenvalues --    5.99713   6.05058   6.05072   6.05971   6.23095
 Alpha virt. eigenvalues --    6.31867   6.31878   8.41569   8.41591   8.41755
 Alpha virt. eigenvalues --    8.42453   8.42739   8.42767   8.46638   8.46659
 Alpha virt. eigenvalues --    8.48682   8.72120   9.70942   9.70953   9.71106
 Alpha virt. eigenvalues --    9.83115   9.83995   9.83998   9.84560   9.84725
 Alpha virt. eigenvalues --    9.84727   9.90802   9.90836  10.04956  10.04964
 Alpha virt. eigenvalues --   10.05767  14.07332  14.11540  14.11551  16.81324
 Alpha virt. eigenvalues --   16.83439  16.83526  20.28716  20.28722  20.28776
 Alpha virt. eigenvalues --   20.29394  20.30306  20.30324  20.32788  20.38050
 Alpha virt. eigenvalues --   20.38080  20.84615  20.85491  20.85494  25.83480
 Alpha virt. eigenvalues --   42.79096  42.79099  42.79169  42.93353  42.93367
 Alpha virt. eigenvalues --   65.12629  65.16112  65.16120  78.12887  78.14539
 Alpha virt. eigenvalues --   78.14615  81.88816  85.99011  85.99712  85.99719
 Alpha virt. eigenvalues --  112.73166 112.73205 112.73210 112.73749 112.74340
 Alpha virt. eigenvalues --  112.74353 112.76408 112.79802 112.79825 257.01158
 Alpha virt. eigenvalues --  282.46861 282.49740 282.49746 428.61347 428.61850
 Alpha virt. eigenvalues --  428.61857 431.75070 431.76545 431.76626 772.70714
 Alpha virt. eigenvalues -- 1043.632731043.657681043.657742068.324135495.13980
 Alpha virt. eigenvalues -- 5634.501155634.534215634.53428********************
          Condensed to atoms (all electrons):
               1          2          3          4          5          6
     1  Pt  77.783616   0.120891   0.080608   0.079577   0.081633   0.120006
     2  Br   0.120891  35.291443  -0.041741  -0.041416  -0.011900  -0.024298
     3  Cl   0.080608  -0.041741  17.415219  -0.065855  -0.065568  -0.041646
     4  Cl   0.079577  -0.041416  -0.065855  17.416401  -0.065533  -0.011889
     5  Cl   0.081633  -0.011900  -0.065568  -0.065533  17.413636  -0.041740
     6  Br   0.120006  -0.024298  -0.041646  -0.011889  -0.041740  35.292320
     7  Br   0.120367  -0.024214  -0.011874  -0.041823  -0.041911  -0.024055
               7
     1  Pt   0.120367
     2  Br  -0.024214
     3  Cl  -0.011874
     4  Cl  -0.041823
     5  Cl  -0.041911
     6  Br  -0.024055
     7  Br  35.292126
 Mulliken charges:
               1
     1  Pt  -0.386698
     2  Br  -0.268764
     3  Cl  -0.269142
     4  Cl  -0.269463
     5  Cl  -0.268618
     6  Br  -0.268697
     7  Br  -0.268617
 Sum of Mulliken charges =  -2.00000
 Mulliken charges with hydrogens summed into heavy atoms:
               1
     1  Pt  -0.386698
     2  Br  -0.268764
     3  Cl  -0.269142
     4  Cl  -0.269463
     5  Cl  -0.268618
     6  Br  -0.268697
     7  Br  -0.268617
 Electronic spatial extent (au):  <R**2>=           3691.0029
 Charge=             -2.0000 electrons
 Dipole moment (field-independent basis, Debye):
    X=             -0.0152    Y=              0.0182    Z=             -4.0962  Tot=              4.0963
 Quadrupole moment (field-independent basis, Debye-Ang):
   XX=           -153.5228   YY=           -153.5094   ZZ=           -155.2675
   XY=              0.0139   XZ=             -0.0164   YZ=              0.0038
 Traceless Quadrupole moment (field-independent basis, Debye-Ang):
   XX=              0.5771   YY=              0.5905   ZZ=             -1.1676
   XY=              0.0139   XZ=             -0.0164   YZ=              0.0038
 Octapole moment (field-independent basis, Debye-Ang**2):
  XXX=              0.3416  YYY=              2.0866  ZZZ=            -77.6609  XYY=             -0.6061
  XXY=             -1.4562  XXZ=            -27.2948  XZZ=             -0.0462  YZZ=              0.0834
  YYZ=            -27.2360  XYZ=              0.0096
 Hexadecapole moment (field-independent basis, Debye-Ang**3):
 XXXX=          -1494.5787 YYYY=          -1492.8105 ZZZZ=          -1476.4978 XXXY=             -0.0302
 XXXZ=              3.5482 YYYX=              0.1711 YYYZ=             11.3904 ZZZX=             -0.0500
 ZZZY=             -0.1349 XXYY=           -497.7479 XXZZ=           -505.8669 YYZZ=           -505.1588
 XXYZ=            -10.9731 YYXZ=             -3.7906 ZZXY=              0.0282
 N-N= 4.001263313591D+03 E-N=-7.026409068932D+04  KE= 2.586186327175D+04
 Calculating spin-rotation constants.
 Leave Link  601 at Sat Oct 30 01:03:43 2021, MaxMem=  2013265920 cpu:         3.7
 (Enter /scr/programas/g09/l9999.exe)
 1\1\GINC-NQTCM04\SP\RPBEPBE\Gen\Br3Cl3Pt1(2-)\DIEGO\30-Oct-2021\0\\#PB
 EPBE/gen scf=maxcycle=200 NMR=GIAO Scrf=(solvent=water)\\estrutura 21\
 \-2,1\Pt,0,0.000582,-0.001281,0.348067\Br,0,-0.227119,2.061439,-1.0949
 17\Cl,0,-1.789085,0.780198,1.750385\Cl,0,1.584203,1.146576,1.74598\Cl,
 0,0.215486,-1.958551,1.725995\Br,0,-1.672355,-1.21632,-1.106558\Br,0,1
 .893026,-0.82683,-1.110793\\Version=EM64L-G09RevD.01\State=1-A\HF=-261
 94.8544781\RMSD=5.999e-09\Dipole=-0.0059616,0.0071439,-1.6115654\Quadr
 upole=0.4290676,0.4389869,-0.8680545,0.0103661,-0.0121576,0.0028164\PG
 =C01 [X(Br3Cl3Pt1)]\\@


 ONLY A FOOL KNOWS EVERYTHING.

               -- THE CHEMIST ANALYST, SEPTEMBER 1946
 Job cpu time:       0 days  0 hours 48 minutes 57.8 seconds.
 File lengths (MBytes):  RWF=    153 Int=      0 D2E=      0 Chk=     13 Scr=      1
 Normal termination of Gaussian 09 at Sat Oct 30 01:03:44 2021.
