 Entering Gaussian System, Link 0=g09
 Input=estrutura58freq_LANL2DZ_TZVP.com
 Output=estrutura58freq_LANL2DZ_TZVP.log
 Initial command:
 /scr/programas/g09/l1.exe "/scr/diego/Gau-7423.inp" -scrdir="/scr/diego/"
 Entering Link 1 = /scr/programas/g09/l1.exe PID=      7425.
  
 Copyright (c) 1988,1990,1992,1993,1995,1998,2003,2009,2013,
            Gaussian, Inc.  All Rights Reserved.
  
 This is part of the Gaussian(R) 09 program.  It is based on
 the Gaussian(R) 03 system (copyright 2003, Gaussian, Inc.),
 the Gaussian(R) 98 system (copyright 1998, Gaussian, Inc.),
 the Gaussian(R) 94 system (copyright 1995, Gaussian, Inc.),
 the Gaussian 92(TM) system (copyright 1992, Gaussian, Inc.),
 the Gaussian 90(TM) system (copyright 1990, Gaussian, Inc.),
 the Gaussian 88(TM) system (copyright 1988, Gaussian, Inc.),
 the Gaussian 86(TM) system (copyright 1986, Carnegie Mellon
 University), and the Gaussian 82(TM) system (copyright 1983,
 Carnegie Mellon University). Gaussian is a federally registered
 trademark of Gaussian, Inc.
  
 This software contains proprietary and confidential information,
 including trade secrets, belonging to Gaussian, Inc.
  
 This software is provided under written license and may be
 used, copied, transmitted, or stored only in accord with that
 written license.
  
 The following legend is applicable only to US Government
 contracts under FAR:
  
                    RESTRICTED RIGHTS LEGEND
  
 Use, reproduction and disclosure by the US Government is
 subject to restrictions as set forth in subparagraphs (a)
 and (c) of the Commercial Computer Software - Restricted
 Rights clause in FAR 52.227-19.
  
 Gaussian, Inc.
 340 Quinnipiac St., Bldg. 40, Wallingford CT 06492
  
  
 ---------------------------------------------------------------
 Warning -- This program may not be used in any manner that
 competes with the business of Gaussian, Inc. or will provide
 assistance to any competitor of Gaussian, Inc.  The licensee
 of this program is prohibited from giving any competitor of
 Gaussian, Inc. access to this program.  By using this program,
 the user acknowledges that Gaussian, Inc. is engaged in the
 business of creating and licensing software in the field of
 computational chemistry and represents and warrants to the
 licensee that it is not a competitor of Gaussian, Inc. and that
 it will not use this program in any manner prohibited above.
 ---------------------------------------------------------------
  

 Cite this work as:
 Gaussian 09, Revision D.01,
 M. J. Frisch, G. W. Trucks, H. B. Schlegel, G. E. Scuseria, 
 M. A. Robb, J. R. Cheeseman, G. Scalmani, V. Barone, B. Mennucci, 
 G. A. Petersson, H. Nakatsuji, M. Caricato, X. Li, H. P. Hratchian, 
 A. F. Izmaylov, J. Bloino, G. Zheng, J. L. Sonnenberg, M. Hada, 
 M. Ehara, K. Toyota, R. Fukuda, J. Hasegawa, M. Ishida, T. Nakajima, 
 Y. Honda, O. Kitao, H. Nakai, T. Vreven, J. A. Montgomery, Jr., 
 J. E. Peralta, F. Ogliaro, M. Bearpark, J. J. Heyd, E. Brothers, 
 K. N. Kudin, V. N. Staroverov, T. Keith, R. Kobayashi, J. Normand, 
 K. Raghavachari, A. Rendell, J. C. Burant, S. S. Iyengar, J. Tomasi, 
 M. Cossi, N. Rega, J. M. Millam, M. Klene, J. E. Knox, J. B. Cross, 
 V. Bakken, C. Adamo, J. Jaramillo, R. Gomperts, R. E. Stratmann, 
 O. Yazyev, A. J. Austin, R. Cammi, C. Pomelli, J. W. Ochterski, 
 R. L. Martin, K. Morokuma, V. G. Zakrzewski, G. A. Voth, 
 P. Salvador, J. J. Dannenberg, S. Dapprich, A. D. Daniels, 
 O. Farkas, J. B. Foresman, J. V. Ortiz, J. Cioslowski, 
 and D. J. Fox, Gaussian, Inc., Wallingford CT, 2013.
 
 ******************************************
 Gaussian 09:  EM64L-G09RevD.01 24-Apr-2013
                30-Oct-2021 
 ******************************************
 %mem=15Gb
 %nproc=4
 Will use up to    4 processors via shared memory.
 ----------------------------------------------------------
 #PBEPBE/gen scf=maxcycle=200 NMR=GIAO Scrf=(solvent=water)
 ----------------------------------------------------------
 1/38=1/1;
 2/12=2,17=6,18=5,40=1/2;
 3/5=7,11=2,16=1,25=1,30=1,70=2201,72=1,74=1009/1,2,8,3;
 4//1;
 5/5=2,7=200,38=5,53=1/2;
 8/6=1,10=90,11=11/1;
 10/13=100,45=16/2;
 6/7=2,8=2,9=2,10=2,28=1/1;
 99/9=1/99;
 Leave Link    1 at Sat Oct 30 07:13:21 2021, MaxMem=  2013265920 cpu:         0.2
 (Enter /scr/programas/g09/l101.exe)
 ------------
 estrutura 58
 ------------
 Symbolic Z-matrix:
 Charge = -2 Multiplicity = 1
 Pt                    0.03774  -0.18546  -0.07187 
 N                    -1.10575  -1.96797  -0.1526 
 O                    -2.02465  -2.10729   0.6293 
 O                    -0.79332  -2.80079  -0.98229 
 N                     1.77741  -1.38077  -0.08739 
 O                     1.74697  -2.3989    0.58329 
 O                     2.73306  -1.0433   -0.75443 
 Cl                    0.06717  -0.11422  -2.49854 
 N                     0.07795  -0.2445    2.03258 
 O                     1.17637  -0.27628   2.56187 
 O                    -0.96384  -0.23946   2.65503 
 Br                    1.41962   1.98723   0.05074 
 Br                   -2.11476   1.22674  -0.10815 
 
 NAtoms=     13 NQM=       13 NQMF=       0 NMMI=      0 NMMIF=      0
                NMic=       0 NMicF=      0.
                    Isotopes and Nuclear Properties:
 (Nuclear quadrupole moments (NQMom) in fm**2, nuclear magnetic moments (NMagM)
  in nuclear magnetons)

  Atom         1           2           3           4           5           6           7           8           9          10
 IAtWgt=         195          14          16          16          14          16          16          35          14          16
 AtmWgt= 194.9648000  14.0030740  15.9949146  15.9949146  14.0030740  15.9949146  15.9949146  34.9688527  14.0030740  15.9949146
 NucSpn=           1           2           0           0           2           0           0           3           2           0
 AtZEff=   0.0000000   0.0000000   0.0000000   0.0000000   0.0000000   0.0000000   0.0000000   0.0000000   0.0000000   0.0000000
 NQMom=    0.0000000   2.0440000   0.0000000   0.0000000   2.0440000   0.0000000   0.0000000  -8.1650000   2.0440000   0.0000000
 NMagM=    0.6095000   0.4037610   0.0000000   0.0000000   0.4037610   0.0000000   0.0000000   0.8218740   0.4037610   0.0000000
 AtZNuc=  78.0000000   7.0000000   8.0000000   8.0000000   7.0000000   8.0000000   8.0000000  17.0000000   7.0000000   8.0000000

  Atom        11          12          13
 IAtWgt=          16          79          79
 AtmWgt=  15.9949146  78.9183361  78.9183361
 NucSpn=           0           3           3
 AtZEff=   0.0000000   0.0000000   0.0000000
 NQMom=    0.0000000  31.3000000  31.3000000
 NMagM=    0.0000000   2.1063990   2.1063990
 AtZNuc=   8.0000000  35.0000000  35.0000000
 Leave Link  101 at Sat Oct 30 07:13:21 2021, MaxMem=  2013265920 cpu:         0.4
 (Enter /scr/programas/g09/l202.exe)
                          Input orientation:                          
 ---------------------------------------------------------------------
 Center     Atomic      Atomic             Coordinates (Angstroms)
 Number     Number       Type             X           Y           Z
 ---------------------------------------------------------------------
      1         78           0        0.037739   -0.185464   -0.071871
      2          7           0       -1.105753   -1.967971   -0.152598
      3          8           0       -2.024653   -2.107287    0.629296
      4          8           0       -0.793316   -2.800793   -0.982290
      5          7           0        1.777406   -1.380774   -0.087388
      6          8           0        1.746974   -2.398901    0.583291
      7          8           0        2.733063   -1.043305   -0.754425
      8         17           0        0.067174   -0.114224   -2.498536
      9          7           0        0.077954   -0.244498    2.032584
     10          8           0        1.176372   -0.276281    2.561871
     11          8           0       -0.963835   -0.239459    2.655032
     12         35           0        1.419624    1.987234    0.050741
     13         35           0       -2.114759    1.226736   -0.108150
 ---------------------------------------------------------------------
                    Distance matrix (angstroms):
                    1          2          3          4          5
     1  Pt   0.000000
     2  N    2.119298   0.000000
     3  O    2.904910   1.214555   0.000000
     4  O    2.891273   1.216387   2.143444   0.000000
     5  N    2.110793   2.943070   3.936637   3.070165   0.000000
     6  O    2.872286   2.977463   3.783163   3.010919   1.219557
     7  O    2.909732   3.994210   5.067801   3.946649   1.213303
     8  Cl   2.427889   3.211785   4.258095   3.202670   3.216003
     9  N    2.105667   3.024325   3.140089   4.047619   2.945088
    10  O    2.870772   3.929154   4.163411   4.776391   2.932528
    11  O    2.905523   3.300103   2.952579   4.451923   4.042013
    12  Br   2.577839   4.697076   5.381716   5.374892   3.389774
    13  Br   2.574660   3.350555   3.415795   4.327970   4.684921
                    6          7          8          9         10
     6  O    0.000000
     7  O    2.144644   0.000000
     8  Cl   4.187975   3.318445   0.000000
     9  N    3.086670   3.931299   4.533005   0.000000
    10  O    2.957344   3.742918   5.183078   1.219704   0.000000
    11  O    4.037795   5.092899   5.257179   1.213586   2.142550
    12  Br   4.430457   3.399644   3.569882   3.272370   3.389461
    13  Br   5.341939   5.391858   3.503277   3.399303   4.496623
                   11         12         13
    11  O    0.000000
    12  Br   4.173891   0.000000
    13  Br   3.333096   3.618766   0.000000
 Stoichiometry    Br2ClN3O6Pt(2-)
 Framework group  C1[X(Br2ClN3O6Pt)]
 Deg. of freedom    33
 Full point group                 C1      NOp   1
 Largest Abelian subgroup         C1      NOp   1
 Largest concise Abelian subgroup C1      NOp   1
                         Standard orientation:                         
 ---------------------------------------------------------------------
 Center     Atomic      Atomic             Coordinates (Angstroms)
 Number     Number       Type             X           Y           Z
 ---------------------------------------------------------------------
      1         78           0       -0.037739    0.185464   -0.071871
      2          7           0        1.105752    1.967972   -0.152598
      3          8           0        2.024652    2.107288    0.629296
      4          8           0        0.793314    2.800794   -0.982290
      5          7           0       -1.777407    1.380773   -0.087388
      6          8           0       -1.746975    2.398900    0.583291
      7          8           0       -2.733064    1.043304   -0.754425
      8         17           0       -0.067174    0.114224   -2.498536
      9          7           0       -0.077954    0.244498    2.032584
     10          8           0       -1.176372    0.276281    2.561871
     11          8           0        0.963835    0.239460    2.655032
     12         35           0       -1.419623   -1.987235    0.050741
     13         35           0        2.114759   -1.226735   -0.108150
 ---------------------------------------------------------------------
 Rotational constants (GHZ):      0.3718425      0.3642186      0.3005818
 Leave Link  202 at Sat Oct 30 07:13:21 2021, MaxMem=  2013265920 cpu:         0.0
 (Enter /scr/programas/g09/l301.exe)
 General basis read from cards:  (5D, 7F)
 Centers:       2      5      9
 S 6 1.00
     Exponent=  1.2238326969D+04 Coefficients=  5.6000000000D-04
     Exponent=  4.0794423230D+03 Coefficients=  7.7000000000D-04
     Exponent=  1.3598141077D+03 Coefficients=  4.0600000000D-03
     Exponent=  4.5327136922D+02 Coefficients=  1.3910000000D-02
     Exponent=  1.5109045641D+02 Coefficients=  5.2990000000D-02
     Exponent=  5.0363485469D+01 Coefficients=  1.6952000000D-01
 S 1 1.00
     Exponent=  1.6787828490D+01 Coefficients=  1.0000000000D+00
 S 1 1.00
     Exponent=  5.5959428299D+00 Coefficients=  1.0000000000D+00
 S 1 1.00
     Exponent=  1.8653142766D+00 Coefficients=  1.0000000000D+00
 S 1 1.00
     Exponent=  6.2177142554D-01 Coefficients=  1.0000000000D+00
 S 1 1.00
     Exponent=  2.0725714185D-01 Coefficients=  1.0000000000D+00
 P 4 1.00
     Exponent=  5.4142548249D+01 Coefficients=  3.9700000000D-03
     Exponent=  1.6659245615D+01 Coefficients=  1.9540000000D-02
     Exponent=  5.1259217277D+00 Coefficients=  9.9790000000D-02
     Exponent=  1.5772066854D+00 Coefficients=  3.2845000000D-01
 P 1 1.00
     Exponent=  4.8529436475D-01 Coefficients=  1.0000000000D+00
 P 1 1.00
     Exponent=  1.4932134300D-01 Coefficients=  1.0000000000D+00
 D 1 1.00
     Exponent=  4.7700000000D-01 Coefficients=  1.0000000000D+00
 D 1 1.00
     Exponent=  1.5026000000D-01 Coefficients=  1.0000000000D+00
 ****
 Centers:       3      4      6      7     10     11
 S 6 1.00
     Exponent=  1.6178118231D+04 Coefficients=  6.0000000000D-04
     Exponent=  5.3927060771D+03 Coefficients=  7.8000000000D-04
     Exponent=  1.7975686924D+03 Coefficients=  4.1000000000D-03
     Exponent=  5.9918956413D+02 Coefficients=  1.3880000000D-02
     Exponent=  1.9972985471D+02 Coefficients=  5.2770000000D-02
     Exponent=  6.6576618236D+01 Coefficients=  1.6924000000D-01
 S 1 1.00
     Exponent=  2.2192206079D+01 Coefficients=  1.0000000000D+00
 S 1 1.00
     Exponent=  7.3974020263D+00 Coefficients=  1.0000000000D+00
 S 1 1.00
     Exponent=  2.4658006754D+00 Coefficients=  1.0000000000D+00
 S 1 1.00
     Exponent=  8.2193355847D-01 Coefficients=  1.0000000000D+00
 S 1 1.00
     Exponent=  2.7397785282D-01 Coefficients=  1.0000000000D+00
 P 4 1.00
     Exponent=  7.3854398670D+01 Coefficients=  4.0200000000D-03
     Exponent=  2.2724430360D+01 Coefficients=  2.0130000000D-02
     Exponent=  6.9921324184D+00 Coefficients=  1.0470000000D-01
     Exponent=  2.1514253595D+00 Coefficients=  3.3605000000D-01
 P 1 1.00
     Exponent=  6.6197703370D-01 Coefficients=  1.0000000000D+00
 P 1 1.00
     Exponent=  2.0368524114D-01 Coefficients=  1.0000000000D+00
 D 1 1.00
     Exponent=  9.2880000000D-01 Coefficients=  1.0000000000D+00
 D 1 1.00
     Exponent=  2.2975000000D-01 Coefficients=  1.0000000000D+00
 ****
 Centers:       8
 S 7 1.00
     Exponent=  7.7142817164D+04 Coefficients=  1.0600000000D-03
     Exponent=  2.8051933514D+04 Coefficients=  6.4000000000D-04
     Exponent=  1.0200703096D+04 Coefficients=  3.9600000000D-03
     Exponent=  3.7093465804D+03 Coefficients=  9.8300000000D-03
     Exponent=  1.3488533020D+03 Coefficients=  3.2690000000D-02
     Exponent=  4.9049210981D+02 Coefficients=  9.9520000000D-02
     Exponent=  1.7836076720D+02 Coefficients=  2.6555000000D-01
 S 1 1.00
     Exponent=  6.4858460801D+01 Coefficients=  1.0000000000D+00
 S 1 1.00
     Exponent=  2.3584894837D+01 Coefficients=  1.0000000000D+00
 S 1 1.00
     Exponent=  8.5763253951D+00 Coefficients=  1.0000000000D+00
 S 1 1.00
     Exponent=  3.1186637801D+00 Coefficients=  1.0000000000D+00
 S 1 1.00
     Exponent=  1.1340595564D+00 Coefficients=  1.0000000000D+00
 S 1 1.00
     Exponent=  4.1238529323D-01 Coefficients=  1.0000000000D+00
 S 1 1.00
     Exponent=  1.4995828845D-01 Coefficients=  1.0000000000D+00
 S 1 1.00
     Exponent=  5.4530286708D-02 Coefficients=  1.0000000000D+00
 P 5 1.00
     Exponent=  6.9498536057D+02 Coefficients=  2.0000000000D-03
     Exponent=  2.3166178686D+02 Coefficients=  8.9500000000D-03
     Exponent=  7.7220595619D+01 Coefficients=  5.1130000000D-02
     Exponent=  2.5740198540D+01 Coefficients=  2.1011000000D-01
     Exponent=  8.5800661799D+00 Coefficients=  4.9738000000D-01
 P 1 1.00
     Exponent=  2.8600220600D+00 Coefficients=  1.0000000000D+00
 P 1 1.00
     Exponent=  9.5334068665D-01 Coefficients=  1.0000000000D+00
 P 1 1.00
     Exponent=  3.1778022888D-01 Coefficients=  1.0000000000D+00
 P 1 1.00
     Exponent=  1.0592674296D-01 Coefficients=  1.0000000000D+00
 P 1 1.00
     Exponent=  3.5308914320D-02 Coefficients=  1.0000000000D+00
 D 1 1.00
     Exponent=  5.5696000000D-01 Coefficients=  1.0000000000D+00
 D 1 1.00
     Exponent=  1.5619100000D-01 Coefficients=  1.0000000000D+00
 ****
 Centers:      12     13
 S 7 1.00
     Exponent=  3.4867099512D+05 Coefficients=  2.4100000000D-03
     Exponent=  1.3946839805D+05 Coefficients=  1.2000000000D-04
     Exponent=  5.5787359218D+04 Coefficients=  5.8500000000D-03
     Exponent=  2.2314943687D+04 Coefficients=  8.2100000000D-03
     Exponent=  8.9259774750D+03 Coefficients=  2.4090000000D-02
     Exponent=  3.5703909900D+03 Coefficients=  5.7250000000D-02
     Exponent=  1.4281563960D+03 Coefficients=  1.4467000000D-01
 S 1 1.00
     Exponent=  5.7126255840D+02 Coefficients=  1.0000000000D+00
 S 1 1.00
     Exponent=  2.2850502336D+02 Coefficients=  1.0000000000D+00
 S 1 1.00
     Exponent=  9.1402009344D+01 Coefficients=  1.0000000000D+00
 S 1 1.00
     Exponent=  3.6560803737D+01 Coefficients=  1.0000000000D+00
 S 1 1.00
     Exponent=  1.4624321495D+01 Coefficients=  1.0000000000D+00
 S 1 1.00
     Exponent=  5.8497285980D+00 Coefficients=  1.0000000000D+00
 S 1 1.00
     Exponent=  2.3398914392D+00 Coefficients=  1.0000000000D+00
 S 1 1.00
     Exponent=  9.3595657568D-01 Coefficients=  1.0000000000D+00
 S 1 1.00
     Exponent=  3.7438263027D-01 Coefficients=  1.0000000000D+00
 S 1 1.00
     Exponent=  1.4975305211D-01 Coefficients=  1.0000000000D+00
 S 1 1.00
     Exponent=  5.9901220843D-02 Coefficients=  1.0000000000D+00
 P 5 1.00
     Exponent=  4.2715043612D+03 Coefficients=  2.0900000000D-03
     Exponent=  1.5532743132D+03 Coefficients=  5.5700000000D-03
     Exponent=  5.6482702297D+02 Coefficients=  3.0250000000D-02
     Exponent=  2.0539164472D+02 Coefficients=  1.2196000000D-01
     Exponent=  7.4687870806D+01 Coefficients=  3.7861000000D-01
 P 1 1.00
     Exponent=  2.7159225748D+01 Coefficients=  1.0000000000D+00
 P 1 1.00
     Exponent=  9.8760820901D+00 Coefficients=  1.0000000000D+00
 P 1 1.00
     Exponent=  3.5913025782D+00 Coefficients=  1.0000000000D+00
 P 1 1.00
     Exponent=  1.3059282103D+00 Coefficients=  1.0000000000D+00
 P 1 1.00
     Exponent=  4.7488298555D-01 Coefficients=  1.0000000000D+00
 P 1 1.00
     Exponent=  1.7268472202D-01 Coefficients=  1.0000000000D+00
 P 1 1.00
     Exponent=  6.2794444370D-02 Coefficients=  1.0000000000D+00
 P 1 1.00
     Exponent=  2.2834343407D-02 Coefficients=  1.0000000000D+00
 D 4 1.00
     Exponent=  1.5776624282D+02 Coefficients=  7.9800000000D-03
     Exponent=  5.2588747607D+01 Coefficients=  4.9870000000D-02
     Exponent=  1.7529582536D+01 Coefficients=  2.2405000000D-01
     Exponent=  5.8431941786D+00 Coefficients=  4.4250000000D-01
 D 1 1.00
     Exponent=  1.9477313929D+00 Coefficients=  1.0000000000D+00
 D 1 1.00
     Exponent=  6.4924379762D-01 Coefficients=  1.0000000000D+00
 F 1 1.00
     Exponent=  1.6480000000D+00 Coefficients=  1.0000000000D+00
 F 1 1.00
     Exponent=  4.5490000000D-01 Coefficients=  1.0000000000D+00
 ****
 Centers:       1
 S 9 1.00
     Exponent=  2.1644816090D+06 Coefficients=  1.2320000000D-02
     Exponent=  1.0822408045D+06 Coefficients=  1.2970000000D-02
     Exponent=  5.4112040224D+05 Coefficients=  2.6370000000D-02
     Exponent=  2.7056020112D+05 Coefficients=  9.0400000000D-03
     Exponent=  1.3528010056D+05 Coefficients=  3.4980000000D-02
     Exponent=  6.7640050280D+04 Coefficients=  1.2220000000D-02
     Exponent=  3.3820025140D+04 Coefficients=  6.0520000000D-02
     Exponent=  1.6910012570D+04 Coefficients=  6.4930000000D-02
     Exponent=  8.4550062850D+03 Coefficients=  1.3819000000D-01
 S 1 1.00
     Exponent=  4.2275031425D+03 Coefficients=  1.0000000000D+00
 S 1 1.00
     Exponent=  2.1137515713D+03 Coefficients=  1.0000000000D+00
 S 1 1.00
     Exponent=  1.0568757856D+03 Coefficients=  1.0000000000D+00
 S 1 1.00
     Exponent=  5.2843789281D+02 Coefficients=  1.0000000000D+00
 S 1 1.00
     Exponent=  2.6421894641D+02 Coefficients=  1.0000000000D+00
 S 1 1.00
     Exponent=  1.3210947320D+02 Coefficients=  1.0000000000D+00
 S 1 1.00
     Exponent=  6.6054736602D+01 Coefficients=  1.0000000000D+00
 S 1 1.00
     Exponent=  3.3027368301D+01 Coefficients=  1.0000000000D+00
 S 1 1.00
     Exponent=  1.6513684150D+01 Coefficients=  1.0000000000D+00
 S 1 1.00
     Exponent=  8.2568420752D+00 Coefficients=  1.0000000000D+00
 S 1 1.00
     Exponent=  4.1284210376D+00 Coefficients=  1.0000000000D+00
 S 1 1.00
     Exponent=  2.0642105188D+00 Coefficients=  1.0000000000D+00
 S 1 1.00
     Exponent=  1.0321052594D+00 Coefficients=  1.0000000000D+00
 S 1 1.00
     Exponent=  5.1605262970D-01 Coefficients=  1.0000000000D+00
 S 1 1.00
     Exponent=  2.5802631485D-01 Coefficients=  1.0000000000D+00
 S 1 1.00
     Exponent=  1.2901315743D-01 Coefficients=  1.0000000000D+00
 S 1 1.00
     Exponent=  6.4506578713D-02 Coefficients=  1.0000000000D+00
 P 7 1.00
     Exponent=  3.2357915258D+04 Coefficients=  5.0200000000D-03
     Exponent=  1.4381295670D+04 Coefficients=  2.0200000000D-03
     Exponent=  6.3916869645D+03 Coefficients=  1.8070000000D-02
     Exponent=  2.8407497620D+03 Coefficients=  3.6620000000D-02
     Exponent=  1.2625554498D+03 Coefficients=  1.1172000000D-01
     Exponent=  5.6113575545D+02 Coefficients=  2.5586000000D-01
     Exponent=  2.4939366909D+02 Coefficients=  4.2608000000D-01
 P 1 1.00
     Exponent=  1.1084163071D+02 Coefficients=  1.0000000000D+00
 P 1 1.00
     Exponent=  4.9262946981D+01 Coefficients=  1.0000000000D+00
 P 1 1.00
     Exponent=  2.1894643103D+01 Coefficients=  1.0000000000D+00
 P 1 1.00
     Exponent=  9.7309524900D+00 Coefficients=  1.0000000000D+00
 P 1 1.00
     Exponent=  4.3248677733D+00 Coefficients=  1.0000000000D+00
 P 1 1.00
     Exponent=  1.9221634548D+00 Coefficients=  1.0000000000D+00
 P 1 1.00
     Exponent=  8.5429486881D-01 Coefficients=  1.0000000000D+00
 P 1 1.00
     Exponent=  3.7968660836D-01 Coefficients=  1.0000000000D+00
 P 1 1.00
     Exponent=  1.6874960372D-01 Coefficients=  1.0000000000D+00
 P 1 1.00
     Exponent=  7.4999823874D-02 Coefficients=  1.0000000000D+00
 P 1 1.00
     Exponent=  3.3333255055D-02 Coefficients=  1.0000000000D+00
 D 5 1.00
     Exponent=  1.9119003508D+03 Coefficients=  4.3300000000D-03
     Exponent=  7.6476014031D+02 Coefficients=  1.7780000000D-02
     Exponent=  3.0590405613D+02 Coefficients=  8.9710000000D-02
     Exponent=  1.2236162245D+02 Coefficients=  3.1123000000D-01
     Exponent=  4.8944648980D+01 Coefficients=  5.3206000000D-01
 D 1 1.00
     Exponent=  1.9577859592D+01 Coefficients=  1.0000000000D+00
 D 1 1.00
     Exponent=  7.8311438368D+00 Coefficients=  1.0000000000D+00
 D 1 1.00
     Exponent=  3.1324575347D+00 Coefficients=  1.0000000000D+00
 D 1 1.00
     Exponent=  1.2529830139D+00 Coefficients=  1.0000000000D+00
 D 1 1.00
     Exponent=  5.0119320556D-01 Coefficients=  1.0000000000D+00
 D 1 1.00
     Exponent=  2.0047728222D-01 Coefficients=  1.0000000000D+00
 D 1 1.00
     Exponent=  8.0190912889D-02 Coefficients=  1.0000000000D+00
 D 1 1.00
     Exponent=  3.2076365156D-02 Coefficients=  1.0000000000D+00
 F 4 1.00
     Exponent=  8.2289680979D+01 Coefficients=  6.1870000000D-02
     Exponent=  2.9923520356D+01 Coefficients=  2.4823000000D-01
     Exponent=  1.0881280130D+01 Coefficients=  4.9956000000D-01
     Exponent=  3.9568291380D+00 Coefficients=  4.0380000000D-01
 F 1 1.00
     Exponent=  1.4388469593D+00 Coefficients=  1.0000000000D+00
 F 1 1.00
     Exponent=  5.2321707610D-01 Coefficients=  1.0000000000D+00
 G 1 1.00
     Exponent=  2.6700000000D+00 Coefficients=  1.0000000000D+00
 G 1 1.00
     Exponent=  9.0960000000D-01 Coefficients=  1.0000000000D+00
 ****
 Ernie: Thresh=  0.10000D-02 Tol=  0.10000D-05 Strict=F.
 There are   604 symmetry adapted cartesian basis functions of A   symmetry.
 There are   536 symmetry adapted basis functions of A   symmetry.
   536 basis functions,   900 primitive gaussians,   604 cartesian basis functions
   118 alpha electrons      118 beta electrons
       nuclear repulsion energy      4081.1169544668 Hartrees.
 IExCor= 1009 DFT=T Ex=PBE Corr=PBE ExCW=0 ScaHFX=  0.000000
 ScaDFX=  1.000000  1.000000  1.000000  1.000000 ScalE2=  1.000000  1.000000
 IRadAn=      0 IRanWt=     -1 IRanGd=            0 ICorTp=0 IEmpDi=  4
 NAtoms=   13 NActive=   13 NUniq=   13 SFac= 1.00D+00 NAtFMM=   60 NAOKFM=F Big=F
 Integral buffers will be    131072 words long.
 Raffenetti 2 integral format.
 Two-electron integral symmetry is turned on.
 ------------------------------------------------------------------------------
 Polarizable Continuum Model (PCM)
 =================================
 Model                : PCM (using non-symmetric T matrix).
 Atomic radii         : UFF (Universal Force Field).
 Polarization charges : Total charges.
 Charge compensation  : None.
 Solution method      : On-the-fly selection.
 Cavity type          : Scaled VdW (van der Waals Surface) (Alpha=1.100).
 Cavity algorithm     : GePol (No added spheres)
                        Default sphere list used, NSphG=   13.
                        Lebedev-Laikov grids with approx.  5.0 points / Ang**2.
                        Smoothing algorithm: Karplus/York (Gamma=1.0000).
                        Polarization charges: spherical gaussians, with
                                              point-specific exponents (IZeta= 3).
                        Self-potential: point-specific (ISelfS= 7).
                        Self-field    : sphere-specific E.n sum rule (ISelfD= 2).
 Solvent              : Water, Eps=  78.355300 Eps(inf)=   1.777849
 ------------------------------------------------------------------------------
 Spheres list:
 ISph  on   Nord     Re0    Alpha      Xe            Ye            Ze
    1  Pt      1    1.3770  1.100     -0.037739      0.185464     -0.071871
    2   N      2    1.8300  1.100      1.105752      1.967972     -0.152598
    3   O      3    1.7500  1.100      2.024652      2.107288      0.629296
    4   O      4    1.7500  1.100      0.793314      2.800794     -0.982290
    5   N      5    1.8300  1.100     -1.777407      1.380773     -0.087388
    6   O      6    1.7500  1.100     -1.746975      2.398900      0.583291
    7   O      7    1.7500  1.100     -2.733064      1.043304     -0.754425
    8  Cl      8    1.9735  1.100     -0.067174      0.114224     -2.498536
    9   N      9    1.8300  1.100     -0.077954      0.244498      2.032584
   10   O     10    1.7500  1.100     -1.176372      0.276281      2.561871
   11   O     11    1.7500  1.100      0.963835      0.239460      2.655032
   12  Br     12    2.0945  1.100     -1.419623     -1.987235      0.050741
   13  Br     13    2.0945  1.100      2.114759     -1.226735     -0.108150
 ------------------------------------------------------------------------------
 GePol: Number of generator spheres                  =      13
 GePol: Total number of spheres                      =      13
 GePol: Number of exposed spheres                    =      12 ( 92.31%)
 GePol: Number of points                             =    1801
 GePol: Average weight of points                     =       0.14
 GePol: Minimum weight of points                     =   0.74D-08
 GePol: Maximum weight of points                     =    0.21616
 GePol: Number of points with low weight             =      52
 GePol: Fraction of low-weight points (<1% of avg)   =       2.89%
 GePol: Cavity surface area                          =    255.418 Ang**2
 GePol: Cavity volume                                =    278.494 Ang**3
 Leave Link  301 at Sat Oct 30 07:13:21 2021, MaxMem=  2013265920 cpu:         0.8
 (Enter /scr/programas/g09/l302.exe)
 NPDir=0 NMtPBC=     1 NCelOv=     1 NCel=       1 NClECP=     1 NCelD=      1
         NCelK=      1 NCelE2=     1 NClLst=     1 CellRange=     0.0.
 One-electron integrals computed using PRISM.
 NBasis=   536 RedAO= T EigKep=  5.11D-05  NBF=   536
 NBsUse=   536 1.00D-06 EigRej= -1.00D+00 NBFU=   536
 Precomputing XC quadrature grid using
 IXCGrd= 4 IRadAn=           0 IRanWt=          -1 IRanGd=           0 AccXCQ= 0.00D+00.
 Defaulting to unpruned grid for atomic number  78.
 Generated NRdTot=       0 NPtTot=           0 NUsed=           0 NTot=          32
 NSgBfM=   547   547   547   547   547 MxSgAt=    13 MxSgA2=    13.
 Leave Link  302 at Sat Oct 30 07:13:22 2021, MaxMem=  2013265920 cpu:         3.8
 (Enter /scr/programas/g09/l308.exe)
 Leave Link  308 at Sat Oct 30 07:13:22 2021, MaxMem=  2013265920 cpu:         0.6
 (Enter /scr/programas/g09/l303.exe)
 DipDrv:  MaxL=1.
 Leave Link  303 at Sat Oct 30 07:13:22 2021, MaxMem=  2013265920 cpu:         0.4
 (Enter /scr/programas/g09/l401.exe)
 ExpMin= 2.28D-02 ExpMax= 2.16D+06 ExpMxC= 2.16D+06 IAcc=4 IRadAn=    199590 AccDes= 0.00D+00
 Harris functional with IExCor= 1009 and IRadAn=  199590 diagonalized for initial guess.
 HarFok:  IExCor= 1009 AccDes= 0.00D+00 IRadAn=    199590 IDoV= 1 UseB2=F ITyADJ=14
 ICtDFT=  3500011 ScaDFX=  1.000000  1.000000  1.000000  1.000000
 FoFCou: FMM=F IPFlag=           0 FMFlag=      100000 FMFlg1=           0
         NFxFlg=           0 DoJE=T BraDBF=F KetDBF=T FulRan=T
         wScrn=  0.000000 ICntrl=     500 IOpCl=  0 I1Cent=   200000004 NGrid=           0
         NMat0=    1 NMatS0=      1 NMatT0=    0 NMatD0=    1 NMtDS0=    0 NMtDT0=    0
 Petite list used in FoFCou.
 Harris En= -23335.9167184098    
 JPrj=0 DoOrth=F DoCkMO=F.
 Leave Link  401 at Sat Oct 30 07:13:48 2021, MaxMem=  2013265920 cpu:       103.0
 (Enter /scr/programas/g09/l502.exe)
 Closed shell SCF:
 Using DIIS extrapolation, IDIIS=  1040.
 Integral symmetry usage will be decided dynamically.
 IVT=     1144996 IEndB=     1144996 NGot=  2013265920 MDV=  2012526745
 LenX=  2012526745 LenY=  2012161325
 Requested convergence on RMS density matrix=1.00D-08 within 200 cycles.
 Requested convergence on MAX density matrix=1.00D-06.
 Requested convergence on             energy=1.00D-06.
 No special actions if energy rises.
 Fock matrices will be formed incrementally for  20 cycles.

 Cycle   1  Pass 1  IDiag  1:
 FoFJK:  IHMeth= 1 ICntrl=     500 DoSepK=F KAlg= 0 I1Cent=   0 FoldK=F
 IRaf= 760000000 NMat=   1 IRICut=       1 DoRegI=T DoRafI=F ISym2E= 0.
 FoFCou: FMM=F IPFlag=           0 FMFlag=      100000 FMFlg1=           0
         NFxFlg=           0 DoJE=T BraDBF=F KetDBF=F FulRan=T
         wScrn=  0.000000 ICntrl=     500 IOpCl=  0 I1Cent=           0 NGrid=           0
         NMat0=    1 NMatS0=      1 NMatT0=    0 NMatD0=    1 NMtDS0=    0 NMtDT0=    0
 Symmetry not used in FoFCou.
 Defaulting to unpruned grid for atomic number  78.
 Defaulting to unpruned grid for atomic number  78.
 Defaulting to unpruned grid for atomic number  78.
 Defaulting to unpruned grid for atomic number  78.
 Inv3:  Mode=1 IEnd=     9730803.
 Iteration    1 A*A^-1 deviation from unit magnitude is 6.99D-15 for    414.
 Iteration    1 A*A^-1 deviation from orthogonality  is 4.55D-15 for    949    241.
 Iteration    1 A^-1*A deviation from unit magnitude is 6.66D-15 for    914.
 Iteration    1 A^-1*A deviation from orthogonality  is 8.11D-13 for    958    947.
 E= -23316.4006376635    
 DIIS: error= 4.01D-01 at cycle   1 NSaved=   1.
 NSaved= 1 IEnMin= 1 EnMin= -23316.4006376635     IErMin= 1 ErrMin= 4.01D-01
 ErrMax= 4.01D-01  0.00D+00 EMaxC= 1.00D-01 BMatC= 3.21D+02 BMatP= 3.21D+02
 IDIUse=3 WtCom= 0.00D+00 WtEn= 1.00D+00
 Coeff-Com:  0.100D+01
 Coeff-En:   0.100D+01
 Coeff:      0.100D+01
 Gap=     1.090 Goal=   None    Shift=    0.000
 GapD=    1.090 DampG=2.000 DampE=0.125 DampFc=0.2500 IDamp=-1.
 Damping current iteration by 2.50D-01
 RMSDP=1.77D-02 MaxDP=3.09D+00              OVMax= 8.08D-01

 Cycle   2  Pass 1  IDiag  1:
 RMSU=  4.38D-03    CP:  1.03D+00
 E= -23317.9063725534     Delta-E=       -1.505734889903 Rises=F Damp=T
 DIIS: error= 2.99D-01 at cycle   2 NSaved=   2.
 NSaved= 2 IEnMin= 2 EnMin= -23317.9063725534     IErMin= 2 ErrMin= 2.99D-01
 ErrMax= 2.99D-01  0.00D+00 EMaxC= 1.00D-01 BMatC= 1.53D+02 BMatP= 3.21D+02
 IDIUse=3 WtCom= 0.00D+00 WtEn= 1.00D+00
 Coeff-Com: -0.181D+01 0.281D+01
 Coeff-En:   0.273D+00 0.727D+00
 Coeff:      0.273D+00 0.727D+00
 Gap=    -0.013 Goal=   None    Shift=    0.000
 RMSDP=4.91D-03 MaxDP=5.74D-01 DE=-1.51D+00 OVMax= 8.94D-01

 Cycle   3  Pass 1  IDiag  1:
 RMSU=  4.48D-03    CP:  1.03D+00  5.43D-01
 E= -23318.2187359350     Delta-E=       -0.312363381614 Rises=F Damp=F
 DIIS: error= 8.84D-02 at cycle   3 NSaved=   3.
 NSaved= 3 IEnMin= 3 EnMin= -23318.2187359350     IErMin= 3 ErrMin= 8.84D-02
 ErrMax= 8.84D-02  0.00D+00 EMaxC= 1.00D-01 BMatC= 1.95D+01 BMatP= 1.53D+02
 IDIUse=3 WtCom= 1.16D-01 WtEn= 8.84D-01
 EnCoef did   100 forward-backward iterations
 Coeff-Com:  0.630D+00-0.662D+00 0.103D+01
 Coeff-En:   0.426D+00 0.873D-02 0.565D+00
 Coeff:      0.450D+00-0.693D-01 0.620D+00
 Gap=     0.049 Goal=   None    Shift=    0.000
 RMSDP=6.32D-03 MaxDP=3.46D-01 DE=-3.12D-01 OVMax= 8.19D-01

 Cycle   4  Pass 1  IDiag  1:
 RMSU=  5.09D-03    CP:  1.01D+00  2.57D-01  2.17D-01
 E= -23318.5009377971     Delta-E=       -0.282201862166 Rises=F Damp=F
 DIIS: error= 4.34D-02 at cycle   4 NSaved=   4.
 NSaved= 4 IEnMin= 4 EnMin= -23318.5009377971     IErMin= 4 ErrMin= 4.34D-02
 ErrMax= 4.34D-02  0.00D+00 EMaxC= 1.00D-01 BMatC= 3.82D+00 BMatP= 1.95D+01
 IDIUse=3 WtCom= 5.66D-01 WtEn= 4.34D-01
 EnCoef did     6 forward-backward iterations
 Coeff-Com:  0.351D+00-0.404D+00 0.420D+00 0.633D+00
 Coeff-En:   0.257D+00 0.000D+00 0.444D+00 0.299D+00
 Coeff:      0.311D+00-0.229D+00 0.430D+00 0.488D+00
 Gap=    -0.373 Goal=   None    Shift=    0.000
 RMSDP=6.10D-03 MaxDP=2.01D-01 DE=-2.82D-01 OVMax= 8.80D-01

 Cycle   5  Pass 1  IDiag  1:
 RMSU=  3.65D-03    CP:  1.00D+00  3.05D-01  5.36D-01  8.18D-02
 E= -23315.1248133866     Delta-E=        3.376124410566 Rises=F Damp=F
 DIIS: error= 5.34D-02 at cycle   5 NSaved=   5.
 NSaved= 5 IEnMin= 4 EnMin= -23318.5009377971     IErMin= 4 ErrMin= 4.34D-02
 ErrMax= 5.34D-02  0.00D+00 EMaxC= 1.00D-01 BMatC= 4.55D+00 BMatP= 3.82D+00
 IDIUse=2 WtCom= 0.00D+00 WtEn= 1.00D+00
 EnCoef did    11 forward-backward iterations
 Coeff-En:   0.122D+00 0.000D+00 0.260D+00 0.413D+00 0.205D+00
 Coeff:      0.122D+00 0.000D+00 0.260D+00 0.413D+00 0.205D+00
 Gap=     0.093 Goal=   None    Shift=    0.000
 RMSDP=4.22D-03 MaxDP=2.08D-01 DE= 3.38D+00 OVMax= 9.61D-01

 Cycle   6  Pass 1  IDiag  1:
 RMSU=  1.78D-03    CP:  1.01D+00  1.18D-01  3.42D-01  3.07D-03  1.02D-02
 E= -23320.3062396030     Delta-E=       -5.181426216393 Rises=F Damp=F
 DIIS: error= 4.18D-02 at cycle   6 NSaved=   6.
 NSaved= 6 IEnMin= 6 EnMin= -23320.3062396030     IErMin= 6 ErrMin= 4.18D-02
 ErrMax= 4.18D-02  0.00D+00 EMaxC= 1.00D-01 BMatC= 3.11D+00 BMatP= 3.82D+00
 IDIUse=3 WtCom= 5.82D-01 WtEn= 4.18D-01
 EnCoef did     5 forward-backward iterations
 Coeff-Com: -0.289D+00 0.414D+00-0.224D-01 0.229D+00 0.179D+00 0.490D+00
 Coeff-En:   0.000D+00 0.000D+00 0.203D+00 0.271D+00 0.123D+00 0.403D+00
 Coeff:     -0.168D+00 0.241D+00 0.717D-01 0.247D+00 0.156D+00 0.453D+00
 Gap=     0.187 Goal=   None    Shift=    0.000
 RMSDP=2.34D-03 MaxDP=1.68D-01 DE=-5.18D+00 OVMax= 4.70D-01

 Cycle   7  Pass 1  IDiag  1:
 RMSU=  1.58D-03    CP:  1.01D+00  3.14D-01  5.37D-01  9.20D-02  4.56D-02
                    CP:  3.76D-01
 E= -23322.2089558979     Delta-E=       -1.902716294931 Rises=F Damp=F
 DIIS: error= 1.68D-02 at cycle   7 NSaved=   7.
 NSaved= 7 IEnMin= 7 EnMin= -23322.2089558979     IErMin= 7 ErrMin= 1.68D-02
 ErrMax= 1.68D-02  0.00D+00 EMaxC= 1.00D-01 BMatC= 4.00D-01 BMatP= 3.11D+00
 IDIUse=3 WtCom= 8.32D-01 WtEn= 1.68D-01
 Coeff-Com: -0.118D+00 0.163D+00-0.398D-01 0.132D+00 0.825D-01 0.261D+00
 Coeff-Com:  0.519D+00
 Coeff-En:   0.000D+00 0.000D+00 0.000D+00 0.000D+00 0.000D+00 0.166D+00
 Coeff-En:   0.834D+00
 Coeff:     -0.977D-01 0.135D+00-0.331D-01 0.110D+00 0.686D-01 0.245D+00
 Coeff:      0.572D+00
 Gap=     0.098 Goal=   None    Shift=    0.000
 RMSDP=1.65D-03 MaxDP=1.22D-01 DE=-1.90D+00 OVMax= 3.19D-01

 Cycle   8  Pass 1  IDiag  1:
 RMSU=  9.93D-04    CP:  1.01D+00  1.83D-01  3.89D-01  1.08D-01  7.83D-02
                    CP:  5.25D-01  4.11D-01
 E= -23322.2302259782     Delta-E=       -0.021270080269 Rises=F Damp=F
 DIIS: error= 1.84D-02 at cycle   8 NSaved=   8.
 NSaved= 8 IEnMin= 8 EnMin= -23322.2302259782     IErMin= 7 ErrMin= 1.68D-02
 ErrMax= 1.84D-02  0.00D+00 EMaxC= 1.00D-01 BMatC= 3.92D-01 BMatP= 4.00D-01
 IDIUse=3 WtCom= 8.32D-01 WtEn= 1.68D-01
 Coeff-Com: -0.876D-01 0.117D+00-0.311D-01 0.246D-01 0.651D-02 0.784D-01
 Coeff-Com:  0.445D+00 0.447D+00
 Coeff-En:   0.000D+00 0.000D+00 0.000D+00 0.000D+00 0.000D+00 0.000D+00
 Coeff-En:   0.488D+00 0.512D+00
 Coeff:     -0.729D-01 0.974D-01-0.259D-01 0.205D-01 0.542D-02 0.652D-01
 Coeff:      0.452D+00 0.458D+00
 Gap=     0.133 Goal=   None    Shift=    0.000
 RMSDP=8.80D-04 MaxDP=6.02D-02 DE=-2.13D-02 OVMax= 1.34D-01

 Cycle   9  Pass 1  IDiag  1:
 RMSU=  3.72D-04    CP:  1.01D+00  2.44D-01  4.42D-01  1.33D-01  5.92D-02
                    CP:  4.08D-01  7.51D-01  6.03D-01
 E= -23322.5038356864     Delta-E=       -0.273609708183 Rises=F Damp=F
 DIIS: error= 3.09D-03 at cycle   9 NSaved=   9.
 NSaved= 9 IEnMin= 9 EnMin= -23322.5038356864     IErMin= 9 ErrMin= 3.09D-03
 ErrMax= 3.09D-03  0.00D+00 EMaxC= 1.00D-01 BMatC= 1.74D-02 BMatP= 3.92D-01
 IDIUse=3 WtCom= 9.69D-01 WtEn= 3.09D-02
 Coeff-Com: -0.532D-01 0.711D-01-0.194D-01 0.107D-01-0.280D-03 0.340D-01
 Coeff-Com:  0.252D+00 0.296D+00 0.410D+00
 Coeff-En:   0.000D+00 0.000D+00 0.000D+00 0.000D+00 0.000D+00 0.000D+00
 Coeff-En:   0.000D+00 0.000D+00 0.100D+01
 Coeff:     -0.516D-01 0.689D-01-0.188D-01 0.103D-01-0.271D-03 0.329D-01
 Coeff:      0.244D+00 0.287D+00 0.428D+00
 Gap=     0.088 Goal=   None    Shift=    0.000
 RMSDP=3.78D-04 MaxDP=2.10D-02 DE=-2.74D-01 OVMax= 6.81D-02

 Cycle  10  Pass 1  IDiag  1:
 RMSU=  2.21D-04    CP:  1.01D+00  2.47D-01  4.54D-01  1.08D-01  5.56D-02
                    CP:  4.57D-01  7.63D-01  5.33D-01  3.31D-01
 E= -23322.5096255907     Delta-E=       -0.005789904331 Rises=F Damp=F
 DIIS: error= 2.38D-03 at cycle  10 NSaved=  10.
 NSaved=10 IEnMin=10 EnMin= -23322.5096255907     IErMin=10 ErrMin= 2.38D-03
 ErrMax= 2.38D-03  0.00D+00 EMaxC= 1.00D-01 BMatC= 1.01D-02 BMatP= 1.74D-02
 IDIUse=3 WtCom= 9.76D-01 WtEn= 2.38D-02
 Coeff-Com: -0.865D-02 0.117D-01-0.291D-02 0.668D-02-0.222D-02-0.635D-02
 Coeff-Com:  0.359D-01 0.702D-01 0.407D+00 0.488D+00
 Coeff-En:   0.000D+00 0.000D+00 0.000D+00 0.000D+00 0.000D+00 0.000D+00
 Coeff-En:   0.000D+00 0.000D+00 0.413D+00 0.587D+00
 Coeff:     -0.844D-02 0.114D-01-0.284D-02 0.652D-02-0.216D-02-0.620D-02
 Coeff:      0.351D-01 0.685D-01 0.407D+00 0.491D+00
 Gap=     0.080 Goal=   None    Shift=    0.000
 RMSDP=1.96D-04 MaxDP=8.19D-03 DE=-5.79D-03 OVMax= 3.74D-02

 Cycle  11  Pass 1  IDiag  1:
 RMSU=  8.25D-05    CP:  1.01D+00  2.47D-01  4.48D-01  1.22D-01  5.61D-02
                    CP:  4.36D-01  7.59D-01  5.76D-01  6.20D-01  5.28D-01
 E= -23322.5169464879     Delta-E=       -0.007320897195 Rises=F Damp=F
 DIIS: error= 1.12D-03 at cycle  11 NSaved=  11.
 NSaved=11 IEnMin=11 EnMin= -23322.5169464879     IErMin=11 ErrMin= 1.12D-03
 ErrMax= 1.12D-03  0.00D+00 EMaxC= 1.00D-01 BMatC= 2.31D-03 BMatP= 1.01D-02
 IDIUse=3 WtCom= 9.89D-01 WtEn= 1.12D-02
 EnCoef did     6 forward-backward iterations
 Coeff-Com: -0.269D-02 0.371D-02-0.795D-03 0.512D-02-0.185D-02-0.664D-02
 Coeff-Com:  0.113D-01 0.315D-01 0.289D+00 0.394D+00 0.277D+00
 Coeff-En:   0.000D+00 0.000D+00 0.000D+00 0.000D+00 0.000D+00 0.000D+00
 Coeff-En:   0.000D+00 0.000D+00 0.265D-01 0.166D+00 0.807D+00
 Coeff:     -0.266D-02 0.367D-02-0.786D-03 0.506D-02-0.183D-02-0.656D-02
 Coeff:      0.112D-01 0.312D-01 0.286D+00 0.391D+00 0.283D+00
 Gap=     0.081 Goal=   None    Shift=    0.000
 RMSDP=7.44D-05 MaxDP=3.85D-03 DE=-7.32D-03 OVMax= 1.47D-02

 Cycle  12  Pass 1  IDiag  1:
 RMSU=  3.74D-05    CP:  1.01D+00  2.47D-01  4.47D-01  1.25D-01  5.59D-02
                    CP:  4.30D-01  7.60D-01  5.79D-01  6.59D-01  5.65D-01
                    CP:  2.82D-01
 E= -23322.5185740940     Delta-E=       -0.001627606074 Rises=F Damp=F
 DIIS: error= 3.11D-04 at cycle  12 NSaved=  12.
 NSaved=12 IEnMin=12 EnMin= -23322.5185740940     IErMin=12 ErrMin= 3.11D-04
 ErrMax= 3.11D-04  0.00D+00 EMaxC= 1.00D-01 BMatC= 2.54D-04 BMatP= 2.31D-03
 IDIUse=3 WtCom= 9.97D-01 WtEn= 3.11D-03
 Coeff-Com:  0.246D-03-0.304D-03-0.395D-04 0.231D-02-0.126D-02-0.173D-02
 Coeff-Com:  0.135D-02 0.207D-02 0.965D-01 0.156D+00 0.233D+00 0.512D+00
 Coeff-En:   0.000D+00 0.000D+00 0.000D+00 0.000D+00 0.000D+00 0.000D+00
 Coeff-En:   0.000D+00 0.000D+00 0.000D+00 0.000D+00 0.142D+00 0.858D+00
 Coeff:      0.245D-03-0.303D-03-0.394D-04 0.230D-02-0.126D-02-0.172D-02
 Coeff:      0.135D-02 0.206D-02 0.962D-01 0.156D+00 0.232D+00 0.513D+00
 Gap=     0.081 Goal=   None    Shift=    0.000
 RMSDP=3.25D-05 MaxDP=1.34D-03 DE=-1.63D-03 OVMax= 5.34D-03

 Cycle  13  Pass 1  IDiag  1:
 RMSU=  2.20D-05    CP:  1.01D+00  2.47D-01  4.47D-01  1.24D-01  5.49D-02
                    CP:  4.30D-01  7.62D-01  5.72D-01  6.47D-01  6.01D-01
                    CP:  3.27D-01  5.13D-01
 E= -23322.5187195420     Delta-E=       -0.000145448026 Rises=F Damp=F
 DIIS: error= 1.89D-04 at cycle  13 NSaved=  13.
 NSaved=13 IEnMin=13 EnMin= -23322.5187195420     IErMin=13 ErrMin= 1.89D-04
 ErrMax= 1.89D-04  0.00D+00 EMaxC= 1.00D-01 BMatC= 7.50D-05 BMatP= 2.54D-04
 IDIUse=3 WtCom= 9.98D-01 WtEn= 1.89D-03
 Coeff-Com:  0.298D-04-0.284D-04-0.958D-04 0.972D-03-0.727D-03 0.103D-02
 Coeff-Com:  0.271D-03-0.494D-02 0.176D-01 0.475D-01 0.129D+00 0.406D+00
 Coeff-Com:  0.404D+00
 Coeff-En:   0.000D+00 0.000D+00 0.000D+00 0.000D+00 0.000D+00 0.000D+00
 Coeff-En:   0.000D+00 0.000D+00 0.000D+00 0.000D+00 0.000D+00 0.246D+00
 Coeff-En:   0.754D+00
 Coeff:      0.297D-04-0.284D-04-0.956D-04 0.970D-03-0.726D-03 0.103D-02
 Coeff:      0.270D-03-0.494D-02 0.175D-01 0.474D-01 0.128D+00 0.406D+00
 Coeff:      0.404D+00
 Gap=     0.081 Goal=   None    Shift=    0.000
 RMSDP=1.93D-05 MaxDP=9.52D-04 DE=-1.45D-04 OVMax= 5.11D-03

 Cycle  14  Pass 1  IDiag  1:
 RMSU=  9.55D-06    CP:  1.01D+00  2.47D-01  4.47D-01  1.24D-01  5.46D-02
                    CP:  4.31D-01  7.61D-01  5.71D-01  6.50D-01  5.87D-01
                    CP:  4.04D-01  6.59D-01  3.74D-01
 E= -23322.5187707813     Delta-E=       -0.000051239345 Rises=F Damp=F
 DIIS: error= 9.89D-05 at cycle  14 NSaved=  14.
 NSaved=14 IEnMin=14 EnMin= -23322.5187707813     IErMin=14 ErrMin= 9.89D-05
 ErrMax= 9.89D-05  0.00D+00 EMaxC= 1.00D-01 BMatC= 1.54D-05 BMatP= 7.50D-05
 IDIUse=1 WtCom= 1.00D+00 WtEn= 0.00D+00
 Coeff-Com: -0.833D-04 0.121D-03-0.125D-03 0.643D-03-0.462D-03 0.122D-02
 Coeff-Com:  0.796D-04-0.442D-02 0.233D-02 0.206D-01 0.696D-01 0.246D+00
 Coeff-Com:  0.323D+00 0.341D+00
 Coeff:     -0.833D-04 0.121D-03-0.125D-03 0.643D-03-0.462D-03 0.122D-02
 Coeff:      0.796D-04-0.442D-02 0.233D-02 0.206D-01 0.696D-01 0.246D+00
 Coeff:      0.323D+00 0.341D+00
 Gap=     0.081 Goal=   None    Shift=    0.000
 RMSDP=6.84D-06 MaxDP=4.09D-04 DE=-5.12D-05 OVMax= 1.05D-03

 Cycle  15  Pass 1  IDiag  1:
 RMSU=  3.57D-06    CP:  1.01D+00  2.47D-01  4.47D-01  1.24D-01  5.45D-02
                    CP:  4.32D-01  7.62D-01  5.70D-01  6.48D-01  5.89D-01
                    CP:  3.96D-01  6.84D-01  4.83D-01  4.89D-01
 E= -23322.5187824689     Delta-E=       -0.000011687611 Rises=F Damp=F
 DIIS: error= 5.32D-05 at cycle  15 NSaved=  15.
 NSaved=15 IEnMin=15 EnMin= -23322.5187824689     IErMin=15 ErrMin= 5.32D-05
 ErrMax= 5.32D-05  0.00D+00 EMaxC= 1.00D-01 BMatC= 2.92D-06 BMatP= 1.54D-05
 IDIUse=1 WtCom= 1.00D+00 WtEn= 0.00D+00
 Coeff-Com:  0.425D-04-0.559D-04-0.452D-04 0.209D-03-0.257D-03 0.592D-03
 Coeff-Com: -0.985D-04-0.194D-02-0.582D-02-0.636D-03 0.825D-02 0.543D-01
 Coeff-Com:  0.136D+00 0.267D+00 0.543D+00
 Coeff:      0.425D-04-0.559D-04-0.452D-04 0.209D-03-0.257D-03 0.592D-03
 Coeff:     -0.985D-04-0.194D-02-0.582D-02-0.636D-03 0.825D-02 0.543D-01
 Coeff:      0.136D+00 0.267D+00 0.543D+00
 Gap=     0.080 Goal=   None    Shift=    0.000
 RMSDP=3.83D-06 MaxDP=1.63D-04 DE=-1.17D-05 OVMax= 6.90D-04

 Cycle  16  Pass 1  IDiag  1:
 RMSU=  2.86D-06    CP:  1.01D+00  2.47D-01  4.47D-01  1.24D-01  5.43D-02
                    CP:  4.32D-01  7.62D-01  5.69D-01  6.47D-01  5.93D-01
                    CP:  3.92D-01  6.87D-01  5.23D-01  5.04D-01  5.65D-01
 E= -23322.5187826360     Delta-E=       -0.000000167103 Rises=F Damp=F
 DIIS: error= 5.64D-05 at cycle  16 NSaved=  16.
 NSaved=16 IEnMin=16 EnMin= -23322.5187826360     IErMin=15 ErrMin= 5.32D-05
 ErrMax= 5.64D-05  0.00D+00 EMaxC= 1.00D-01 BMatC= 2.76D-06 BMatP= 2.92D-06
 IDIUse=1 WtCom= 1.00D+00 WtEn= 0.00D+00
 Coeff-Com:  0.637D-05-0.640D-05-0.155D-04 0.538D-04-0.821D-04 0.286D-03
 Coeff-Com: -0.206D-03-0.437D-03-0.731D-02-0.822D-02-0.172D-01-0.329D-01
 Coeff-Com:  0.225D-01 0.129D+00 0.545D+00 0.370D+00
 Coeff:      0.637D-05-0.640D-05-0.155D-04 0.538D-04-0.821D-04 0.286D-03
 Coeff:     -0.206D-03-0.437D-03-0.731D-02-0.822D-02-0.172D-01-0.329D-01
 Coeff:      0.225D-01 0.129D+00 0.545D+00 0.370D+00
 Gap=     0.081 Goal=   None    Shift=    0.000
 RMSDP=2.25D-06 MaxDP=1.40D-04 DE=-1.67D-07 OVMax= 4.18D-04

 Cycle  17  Pass 1  IDiag  1:
 RMSU=  7.69D-07    CP:  1.01D+00  2.47D-01  4.47D-01  1.24D-01  5.43D-02
                    CP:  4.32D-01  7.62D-01  5.69D-01  6.47D-01  5.94D-01
                    CP:  3.97D-01  6.89D-01  5.18D-01  5.82D-01  7.58D-01
                    CP:  3.95D-01
 E= -23322.5187847126     Delta-E=       -0.000002076562 Rises=F Damp=F
 DIIS: error= 9.37D-06 at cycle  17 NSaved=  17.
 NSaved=17 IEnMin=17 EnMin= -23322.5187847126     IErMin=17 ErrMin= 9.37D-06
 ErrMax= 9.37D-06  0.00D+00 EMaxC= 1.00D-01 BMatC= 1.75D-07 BMatP= 2.76D-06
 IDIUse=1 WtCom= 1.00D+00 WtEn= 0.00D+00
 Coeff-Com: -0.143D-04 0.214D-04-0.987D-05 0.131D-04-0.279D-04 0.918D-04
 Coeff-Com: -0.223D-03 0.909D-04-0.391D-02-0.558D-02-0.143D-01-0.342D-01
 Coeff-Com: -0.115D-01 0.418D-01 0.285D+00 0.232D+00 0.511D+00
 Coeff:     -0.143D-04 0.214D-04-0.987D-05 0.131D-04-0.279D-04 0.918D-04
 Coeff:     -0.223D-03 0.909D-04-0.391D-02-0.558D-02-0.143D-01-0.342D-01
 Coeff:     -0.115D-01 0.418D-01 0.285D+00 0.232D+00 0.511D+00
 Gap=     0.081 Goal=   None    Shift=    0.000
 RMSDP=6.80D-07 MaxDP=6.18D-05 DE=-2.08D-06 OVMax= 1.20D-04

 Cycle  18  Pass 1  IDiag  1:
 RMSU=  3.75D-07    CP:  1.01D+00  2.47D-01  4.47D-01  1.24D-01  5.43D-02
                    CP:  4.32D-01  7.62D-01  5.69D-01  6.48D-01  5.94D-01
                    CP:  3.94D-01  6.90D-01  5.31D-01  5.83D-01  7.81D-01
                    CP:  4.50D-01  5.51D-01
 E= -23322.5187847950     Delta-E=       -0.000000082375 Rises=F Damp=F
 DIIS: error= 7.06D-06 at cycle  18 NSaved=  18.
 NSaved=18 IEnMin=18 EnMin= -23322.5187847950     IErMin=18 ErrMin= 7.06D-06
 ErrMax= 7.06D-06  0.00D+00 EMaxC= 1.00D-01 BMatC= 6.57D-08 BMatP= 1.75D-07
 IDIUse=1 WtCom= 1.00D+00 WtEn= 0.00D+00
 Coeff-Com:  0.231D-05-0.179D-05-0.539D-06 0.415D-05-0.652D-05-0.350D-05
 Coeff-Com: -0.167D-03 0.176D-03-0.159D-02-0.289D-02-0.835D-02-0.219D-01
 Coeff-Com: -0.163D-01 0.494D-02 0.105D+00 0.953D-01 0.406D+00 0.439D+00
 Coeff:      0.231D-05-0.179D-05-0.539D-06 0.415D-05-0.652D-05-0.350D-05
 Coeff:     -0.167D-03 0.176D-03-0.159D-02-0.289D-02-0.835D-02-0.219D-01
 Coeff:     -0.163D-01 0.494D-02 0.105D+00 0.953D-01 0.406D+00 0.439D+00
 Gap=     0.081 Goal=   None    Shift=    0.000
 RMSDP=4.18D-07 MaxDP=2.28D-05 DE=-8.24D-08 OVMax= 9.08D-05

 Cycle  19  Pass 1  IDiag  1:
 RMSU=  1.97D-07    CP:  1.01D+00  2.47D-01  4.47D-01  1.24D-01  5.43D-02
                    CP:  4.32D-01  7.62D-01  5.69D-01  6.48D-01  5.94D-01
                    CP:  3.95D-01  6.93D-01  5.28D-01  5.95D-01  8.08D-01
                    CP:  4.44D-01  7.03D-01  5.35D-01
 E= -23322.5187848427     Delta-E=       -0.000000047705 Rises=F Damp=F
 DIIS: error= 1.91D-06 at cycle  19 NSaved=  19.
 NSaved=19 IEnMin=19 EnMin= -23322.5187848427     IErMin=19 ErrMin= 1.91D-06
 ErrMax= 1.91D-06  0.00D+00 EMaxC= 1.00D-01 BMatC= 6.58D-09 BMatP= 6.57D-08
 IDIUse=1 WtCom= 1.00D+00 WtEn= 0.00D+00
 Coeff-Com:  0.371D-05-0.434D-05 0.496D-06 0.177D-05-0.280D-05-0.749D-05
 Coeff-Com: -0.902D-04 0.105D-03-0.734D-03-0.145D-02-0.437D-02-0.118D-01
 Coeff-Com: -0.104D-01-0.129D-02 0.423D-01 0.426D-01 0.232D+00 0.313D+00
 Coeff-Com:  0.400D+00
 Coeff:      0.371D-05-0.434D-05 0.496D-06 0.177D-05-0.280D-05-0.749D-05
 Coeff:     -0.902D-04 0.105D-03-0.734D-03-0.145D-02-0.437D-02-0.118D-01
 Coeff:     -0.104D-01-0.129D-02 0.423D-01 0.426D-01 0.232D+00 0.313D+00
 Coeff:      0.400D+00
 Gap=     0.081 Goal=   None    Shift=    0.000
 RMSDP=1.44D-07 MaxDP=9.24D-06 DE=-4.77D-08 OVMax= 3.26D-05

 Cycle  20  Pass 1  IDiag  1:
 RMSU=  1.02D-07    CP:  1.01D+00  2.47D-01  4.47D-01  1.24D-01  5.43D-02
                    CP:  4.32D-01  7.62D-01  5.69D-01  6.48D-01  5.94D-01
                    CP:  3.95D-01  6.93D-01  5.28D-01  5.95D-01  8.08D-01
                    CP:  4.48D-01  6.99D-01  6.21D-01  5.28D-01
 E= -23322.5187848447     Delta-E=       -0.000000002019 Rises=F Damp=F
 DIIS: error= 1.62D-06 at cycle  20 NSaved=  20.
 NSaved=20 IEnMin=20 EnMin= -23322.5187848447     IErMin=20 ErrMin= 1.62D-06
 ErrMax= 1.62D-06  0.00D+00 EMaxC= 1.00D-01 BMatC= 3.86D-09 BMatP= 6.58D-09
 IDIUse=1 WtCom= 1.00D+00 WtEn= 0.00D+00
 Coeff-Com:  0.183D-05-0.227D-05 0.927D-07-0.227D-07-0.412D-06-0.355D-05
 Coeff-Com: -0.326D-04 0.416D-04-0.198D-03-0.456D-03-0.155D-02-0.445D-02
 Coeff-Com: -0.508D-02-0.325D-02 0.602D-02 0.103D-01 0.931D-01 0.163D+00
 Coeff-Com:  0.391D+00 0.351D+00
 Coeff:      0.183D-05-0.227D-05 0.927D-07-0.227D-07-0.412D-06-0.355D-05
 Coeff:     -0.326D-04 0.416D-04-0.198D-03-0.456D-03-0.155D-02-0.445D-02
 Coeff:     -0.508D-02-0.325D-02 0.602D-02 0.103D-01 0.931D-01 0.163D+00
 Coeff:      0.391D+00 0.351D+00
 Gap=     0.081 Goal=   None    Shift=    0.000
 RMSDP=8.85D-08 MaxDP=4.14D-06 DE=-2.02D-09 OVMax= 1.75D-05

 Cycle  21  Pass 1  IDiag  1:
 Restarting incremental Fock formation.
 E= -23322.5187848469     Delta-E=       -0.000000002194 Rises=F Damp=F
 DIIS: error= 4.29D-07 at cycle  21 NSaved=  20.
 NSaved=20 IEnMin=20 EnMin= -23322.5187848469     IErMin=20 ErrMin= 4.29D-07
 ErrMax= 4.29D-07  0.00D+00 EMaxC= 1.00D-01 BMatC= 2.58D-10 BMatP= 3.86D-09
 IDIUse=1 WtCom= 1.00D+00 WtEn= 0.00D+00
 Coeff-Com:  0.431D-06-0.507D-06-0.243D-06-0.197D-06-0.109D-05-0.140D-04
 Coeff-Com:  0.191D-04-0.627D-04-0.170D-03-0.660D-03-0.202D-02-0.256D-02
 Coeff-Com: -0.220D-02 0.519D-05 0.303D-02 0.415D-01 0.829D-01 0.235D+00
 Coeff-Com:  0.255D+00 0.391D+00
 Coeff:      0.431D-06-0.507D-06-0.243D-06-0.197D-06-0.109D-05-0.140D-04
 Coeff:      0.191D-04-0.627D-04-0.170D-03-0.660D-03-0.202D-02-0.256D-02
 Coeff:     -0.220D-02 0.519D-05 0.303D-02 0.415D-01 0.829D-01 0.235D+00
 Coeff:      0.255D+00 0.391D+00
 Gap=     0.081 Goal=   None    Shift=    0.000
 RMSDP=3.50D-08 MaxDP=2.03D-06 DE=-2.19D-09 OVMax= 6.09D-06

 Cycle  22  Pass 1  IDiag  1:
 RMSU=  3.50D-08    CP:  1.00D+00
 E= -23322.5187848475     Delta-E=       -0.000000000640 Rises=F Damp=F
 DIIS: error= 1.27D-07 at cycle  22 NSaved=  20.
 NSaved=20 IEnMin=20 EnMin= -23322.5187848475     IErMin=20 ErrMin= 1.27D-07
 ErrMax= 1.27D-07  0.00D+00 EMaxC= 1.00D-01 BMatC= 4.10D-11 BMatP= 2.58D-10
 IDIUse=1 WtCom= 1.00D+00 WtEn= 0.00D+00
 Coeff-Com: -0.112D-07-0.295D-06-0.408D-07-0.189D-06-0.216D-05 0.669D-05
 Coeff-Com:  0.501D-05-0.136D-04-0.122D-03-0.436D-03-0.645D-03-0.781D-03
 Coeff-Com: -0.110D-02-0.810D-04 0.937D-02 0.236D-01 0.840D-01 0.108D+00
 Coeff-Com:  0.284D+00 0.494D+00
 Coeff:     -0.112D-07-0.295D-06-0.408D-07-0.189D-06-0.216D-05 0.669D-05
 Coeff:      0.501D-05-0.136D-04-0.122D-03-0.436D-03-0.645D-03-0.781D-03
 Coeff:     -0.110D-02-0.810D-04 0.937D-02 0.236D-01 0.840D-01 0.108D+00
 Coeff:      0.284D+00 0.494D+00
 Gap=     0.081 Goal=   None    Shift=    0.000
 RMSDP=1.18D-08 MaxDP=5.60D-07 DE=-6.40D-10 OVMax= 2.66D-06

 Cycle  23  Pass 1  IDiag  1:
 RMSU=  7.26D-09    CP:  1.00D+00  7.34D-01
 E= -23322.5187848476     Delta-E=       -0.000000000062 Rises=F Damp=F
 DIIS: error= 5.16D-08 at cycle  23 NSaved=  20.
 NSaved=20 IEnMin=20 EnMin= -23322.5187848476     IErMin=20 ErrMin= 5.16D-08
 ErrMax= 5.16D-08  0.00D+00 EMaxC= 1.00D-01 BMatC= 3.07D-12 BMatP= 4.10D-11
 IDIUse=1 WtCom= 1.00D+00 WtEn= 0.00D+00
 Coeff-Com: -0.106D-06-0.204D-09-0.402D-07-0.926D-06 0.273D-05 0.540D-05
 Coeff-Com:  0.806D-06-0.256D-04-0.104D-03-0.172D-03-0.247D-03-0.454D-03
 Coeff-Com: -0.195D-03 0.278D-02 0.722D-02 0.299D-01 0.415D-01 0.125D+00
 Coeff-Com:  0.278D+00 0.517D+00
 Coeff:     -0.106D-06-0.204D-09-0.402D-07-0.926D-06 0.273D-05 0.540D-05
 Coeff:      0.806D-06-0.256D-04-0.104D-03-0.172D-03-0.247D-03-0.454D-03
 Coeff:     -0.195D-03 0.278D-02 0.722D-02 0.299D-01 0.415D-01 0.125D+00
 Coeff:      0.278D+00 0.517D+00
 Gap=     0.081 Goal=   None    Shift=    0.000
 RMSDP=3.80D-09 MaxDP=2.56D-07 DE=-6.18D-11 OVMax= 5.85D-07

 Error on total polarization charges =  0.02870
 SCF Done:  E(RPBE-PBE) =  -23322.5187848     A.U. after   23 cycles
            NFock= 23  Conv=0.38D-08     -V/T= 2.0141
 KE= 2.299881349382D+04 PE=-6.355035894890D+04 EE= 1.314790971577D+04
 Leave Link  502 at Sat Oct 30 07:30:01 2021, MaxMem=  2013265920 cpu:      3873.9
 (Enter /scr/programas/g09/l801.exe)
 Range of M.O.s used for correlation:     1   536
 NBasis=   536 NAE=   118 NBE=   118 NFC=     0 NFV=     0
 NROrb=    536 NOA=   118 NOB=   118 NVA=   418 NVB=   418

 **** Warning!!: The largest alpha MO coefficient is  0.26524004D+02


 **** Warning!!: The smallest alpha delta epsilon is  0.80519783D-01

 Leave Link  801 at Sat Oct 30 07:30:01 2021, MaxMem=  2013265920 cpu:         0.1
 (Enter /scr/programas/g09/l1002.exe)
 Minotr:  Closed shell wavefunction.
 NEqPCM:  Using equilibrium solvation (IEInf=0, Eps=  78.3553, EpsInf=   1.7778)
          Direct CPHF calculation.
          Differentiating once with respect to magnetic field using GIAOs.
          Electric field/nuclear overlap derivatives assumed to be zero.
          Requested convergence is 1.0D-08 RMS, and 1.0D-07 maximum.
          Secondary convergence is 1.0D-12 RMS, and 1.0D-12 maximum.
          NewPWx=T KeepS1=F KeepF1=F KeepIn=T MapXYZ=F SortEE=F KeepMc=T.
          MDV=    2013265276 using IRadAn=       2.
 Defaulting to unpruned grid for atomic number  78.
 Generate precomputed XC quadrature information.
          Solving linear equations simultaneously, MaxMat=       0.
 FoFJK:  IHMeth= 1 ICntrl=    6127 DoSepK=F KAlg= 0 I1Cent=   0 FoldK=F
 IRaf=         1 NMat=   1 IRICut=       1 DoRegI=T DoRafI=F ISym2E= 0.
 Defaulting to unpruned grid for atomic number  78.
 Defaulting to unpruned grid for atomic number  78.
 Defaulting to unpruned grid for atomic number  78.
 Defaulting to unpruned grid for atomic number  78.
          There are     3 degrees of freedom in the 1st order CPHF.  IDoFFX=0 NUNeed=     3.
      3 vectors produced by pass  0 Test12= 1.64D-12 3.33D-08 XBig12= 4.23D+01 2.09D+00.
 AX will form     3 AO Fock derivatives at one time.
 InvSVY:  IOpt=1 It=  1 EMax= 0.00D+00
 Solved reduced A of dimension     3 with     3 vectors.
 Calculating GIAO nuclear magnetic shielding tensors.
 SCF GIAO Magnetic shielding tensor (ppm):
      1  Pt   Isotropic = -2015.8059   Anisotropy =   484.3305
   XX= -2144.5546   YX=  -245.9040   ZX=   -35.2950
   XY=  -216.1994   YY= -2061.4694   ZY=    29.9234
   XZ=  -307.5606   YZ=    83.6766   ZZ= -1841.3937
   Eigenvalues: -2357.1024 -1997.3964 -1692.9189
      2  N    Isotropic =  -190.2501   Anisotropy =   279.7719
   XX=  -179.9659   YX=   -42.2967   ZX=  -139.2368
   XY=   -39.7064   YY=  -201.7979   ZY=    93.3291
   XZ=  -134.2109   YZ=    87.4010   ZZ=  -188.9866
   Eigenvalues:  -334.2023  -232.8126    -3.7355
      3  O    Isotropic =  -364.9757   Anisotropy =   498.2652
   XX=  -372.3508   YX=    36.5557   ZX=  -329.9213
   XY=  -125.8659   YY=  -328.9327   ZY=   113.6909
   XZ=  -214.8198   YZ=   221.2281   ZZ=  -393.6434
   Eigenvalues:  -681.2443  -380.8839   -32.7989
      4  O    Isotropic =  -362.8207   Anisotropy =   454.2102
   XX=  -352.6842   YX=   -95.2133   ZX=  -203.8264
   XY=    26.5377   YY=  -345.8880   ZY=   241.3750
   XZ=  -272.7885   YZ=    94.0319   ZZ=  -389.8899
   Eigenvalues:  -647.9632  -380.4850   -60.0139
      5  N    Isotropic =  -194.2565   Anisotropy =   283.7952
   XX=  -222.9728   YX=    14.0545   ZX=   -91.4854
   XY=     6.3571   YY=  -223.3701   ZY=  -137.3527
   XZ=   -98.2367   YZ=  -133.9095   ZZ=  -136.4266
   Eigenvalues:  -345.0711  -232.6387    -5.0597
      6  O    Isotropic =  -363.9497   Anisotropy =   409.1486
   XX=  -395.9078   YX=    45.3472   ZX=  -115.2290
   XY=   -89.8047   YY=  -388.8506   ZY=  -242.0241
   XZ=  -204.1129   YZ=  -176.9953   ZZ=  -307.0907
   Eigenvalues:  -628.8609  -371.8042   -91.1840
      7  O    Isotropic =  -374.4744   Anisotropy =   453.3809
   XX=  -419.3548   YX=  -112.4868   ZX=  -235.8282
   XY=    61.1266   YY=  -390.9043   ZY=  -190.1030
   XZ=  -130.5505   YZ=  -264.5651   ZZ=  -313.1642
   Eigenvalues:  -668.4372  -382.7656   -72.2205
      8  Cl   Isotropic =   859.4028   Anisotropy =   314.9936
   XX=   727.3017   YX=    24.1742   ZX=   -13.0786
   XY=    85.3141   YY=   785.8651   ZY=   -36.0828
   XZ=    82.8184   YZ=    54.6244   ZZ=  1065.0416
   Eigenvalues:   692.7768   816.0331  1069.3985
      9  N    Isotropic =  -190.6472   Anisotropy =   281.0457
   XX=  -336.3969   YX=     6.6044   ZX=    -4.4932
   XY=    13.9037   YY=    -3.6099   ZY=    -1.7985
   XZ=    13.9164   YZ=    -1.6431   ZZ=  -231.9349
   Eigenvalues:  -336.9286  -231.7297    -3.2834
     10  O    Isotropic =  -382.5611   Anisotropy =   457.1071
   XX=  -686.6727   YX=     3.8981   ZX=  -109.0462
   XY=    45.2652   YY=   -79.7174   ZY=    11.6417
   XZ=   108.8900   YZ=    21.4514   ZZ=  -381.2933
   Eigenvalues:  -687.6685  -382.1918   -77.8231
     11  O    Isotropic =  -373.5729   Anisotropy =   491.4018
   XX=  -679.6119   YX=   -13.0233   ZX=    73.9344
   XY=     1.3880   YY=   -46.6799   ZY=     0.0633
   XZ=  -139.4077   YZ=    29.4745   ZZ=  -394.4268
   Eigenvalues:  -683.3481  -391.3988   -45.9716
     12  Br   Isotropic =  2214.2031   Anisotropy =  1154.8639
   XX=  2282.4440   YX=   540.1191   ZX=    41.2758
   XY=   492.1989   YY=  2603.6688   ZY=   123.1248
   XZ=    -0.1461   YZ=   -92.7799   ZZ=  1756.4964
   Eigenvalues:  1755.6213  1902.8756  2984.1123
     13  Br   Isotropic =  2153.5561   Anisotropy =  1226.0080
   XX=  2573.6144   YX=  -643.1937   ZX=   178.9532
   XY=  -611.4466   YY=  1979.8707   ZY=   314.7890
   XZ=   212.5578   YZ=   261.1115   ZZ=  1907.1831
   Eigenvalues:  1360.9703  2128.8032  2970.8947
 End of Minotr F.D. properties file   721 does not exist.
 End of Minotr F.D. properties file   722 does not exist.
 End of Minotr F.D. properties file   788 does not exist.
 Leave Link 1002 at Sat Oct 30 07:40:12 2021, MaxMem=  2013265920 cpu:      2427.2
 (Enter /scr/programas/g09/l601.exe)
 Copying SCF densities to generalized density rwf, IOpCl= 0 IROHF=0.

 **********************************************************************

            Population analysis using the SCF density.

 **********************************************************************

 Orbital symmetries:
       Occupied  (A) (A) (A) (A) (A) (A) (A) (A) (A) (A) (A) (A)
                 (A) (A) (A) (A) (A) (A) (A) (A) (A) (A) (A) (A)
                 (A) (A) (A) (A) (A) (A) (A) (A) (A) (A) (A) (A)
                 (A) (A) (A) (A) (A) (A) (A) (A) (A) (A) (A) (A)
                 (A) (A) (A) (A) (A) (A) (A) (A) (A) (A) (A) (A)
                 (A) (A) (A) (A) (A) (A) (A) (A) (A) (A) (A) (A)
                 (A) (A) (A) (A) (A) (A) (A) (A) (A) (A) (A) (A)
                 (A) (A) (A) (A) (A) (A) (A) (A) (A) (A) (A) (A)
                 (A) (A) (A) (A) (A) (A) (A) (A) (A) (A) (A) (A)
                 (A) (A) (A) (A) (A) (A) (A) (A) (A) (A)
       Virtual   (A) (A) (A) (A) (A) (A) (A) (A) (A) (A) (A) (A)
                 (A) (A) (A) (A) (A) (A) (A) (A) (A) (A) (A) (A)
                 (A) (A) (A) (A) (A) (A) (A) (A) (A) (A) (A) (A)
                 (A) (A) (A) (A) (A) (A) (A) (A) (A) (A) (A) (A)
                 (A) (A) (A) (A) (A) (A) (A) (A) (A) (A) (A) (A)
                 (A) (A) (A) (A) (A) (A) (A) (A) (A) (A) (A) (A)
                 (A) (A) (A) (A) (A) (A) (A) (A) (A) (A) (A) (A)
                 (A) (A) (A) (A) (A) (A) (A) (A) (A) (A) (A) (A)
                 (A) (A) (A) (A) (A) (A) (A) (A) (A) (A) (A) (A)
                 (A) (A) (A) (A) (A) (A) (A) (A) (A) (A) (A) (A)
                 (A) (A) (A) (A) (A) (A) (A) (A) (A) (A) (A) (A)
                 (A) (A) (A) (A) (A) (A) (A) (A) (A) (A) (A) (A)
                 (A) (A) (A) (A) (A) (A) (A) (A) (A) (A) (A) (A)
                 (A) (A) (A) (A) (A) (A) (A) (A) (A) (A) (A) (A)
                 (A) (A) (A) (A) (A) (A) (A) (A) (A) (A) (A) (A)
                 (A) (A) (A) (A) (A) (A) (A) (A) (A) (A) (A) (A)
                 (A) (A) (A) (A) (A) (A) (A) (A) (A) (A) (A) (A)
                 (A) (A) (A) (A) (A) (A) (A) (A) (A) (A) (A) (A)
                 (A) (A) (A) (A) (A) (A) (A) (A) (A) (A) (A) (A)
                 (A) (A) (A) (A) (A) (A) (A) (A) (A) (A) (A) (A)
                 (A) (A) (A) (A) (A) (A) (A) (A) (A) (A) (A) (A)
                 (A) (A) (A) (A) (A) (A) (A) (A) (A) (A) (A) (A)
                 (A) (A) (A) (A) (A) (A) (A) (A) (A) (A) (A) (A)
                 (A) (A) (A) (A) (A) (A) (A) (A) (A) (A) (A) (A)
                 (A) (A) (A) (A) (A) (A) (A) (A) (A) (A) (A) (A)
                 (A) (A) (A) (A) (A) (A) (A) (A) (A) (A) (A) (A)
                 (A) (A) (A) (A) (A) (A) (A) (A) (A) (A) (A) (A)
                 (A) (A) (A) (A) (A) (A) (A) (A) (A) (A) (A) (A)
                 (A) (A) (A) (A) (A) (A) (A) (A) (A) (A) (A) (A)
                 (A) (A) (A) (A) (A) (A) (A) (A) (A) (A) (A) (A)
                 (A) (A) (A) (A) (A) (A) (A) (A) (A) (A) (A) (A)
                 (A) (A) (A) (A) (A) (A) (A) (A) (A) (A) (A) (A)
                 (A) (A) (A) (A) (A) (A) (A) (A) (A) (A) (A) (A)
                 (A) (A) (A) (A) (A) (A) (A) (A) (A) (A) (A) (A)
                 (A) (A) (A) (A) (A) (A) (A) (A) (A) (A)
 The electronic state is 1-A.
 Alpha  occ. eigenvalues -- **********-478.57286-478.57241-427.60444-414.93359
 Alpha  occ. eigenvalues -- -414.93358-414.93348-100.52510 -99.98471 -92.14139
 Alpha  occ. eigenvalues --  -92.14127 -92.14116 -79.10064 -79.10044 -79.09916
 Alpha  occ. eigenvalues --  -79.09910 -79.09901 -61.49130 -61.49085 -55.67579
 Alpha  occ. eigenvalues --  -55.67537 -55.67333 -55.67331 -55.67290 -55.67282
 Alpha  occ. eigenvalues --  -20.89954 -18.79460 -18.79372 -18.79324 -18.79239
 Alpha  occ. eigenvalues --  -18.79213 -18.79001 -17.46414 -17.46395 -17.46369
 Alpha  occ. eigenvalues --  -14.18705 -14.18694 -14.18677 -11.64867 -11.64816
 Alpha  occ. eigenvalues --  -11.64342 -11.64332 -11.64299  -9.10372  -8.31981
 Alpha  occ. eigenvalues --   -8.31937  -6.94215  -6.93531  -6.93528  -6.22764
 Alpha  occ. eigenvalues --   -6.22728  -6.22047  -6.22042  -6.22007  -6.21985
 Alpha  occ. eigenvalues --   -3.19676  -3.19656  -3.19618  -3.19375  -3.19361
 Alpha  occ. eigenvalues --   -3.19350  -3.19007  -2.92730  -2.43721  -2.43683
 Alpha  occ. eigenvalues --   -2.43538  -2.43535  -2.43502  -2.43487  -2.43007
 Alpha  occ. eigenvalues --   -2.43007  -2.42957  -2.42956  -1.86723  -1.86690
 Alpha  occ. eigenvalues --   -1.86601  -1.13775  -1.13530  -1.13437  -0.97599
 Alpha  occ. eigenvalues --   -0.97335  -0.97183  -0.68085  -0.65173  -0.64595
 Alpha  occ. eigenvalues --   -0.58143  -0.58140  -0.58036  -0.49244  -0.48712
 Alpha  occ. eigenvalues --   -0.48325  -0.47581  -0.47372  -0.46424  -0.46119
 Alpha  occ. eigenvalues --   -0.46085  -0.46001  -0.33806  -0.33360  -0.33288
 Alpha  occ. eigenvalues --   -0.32779  -0.32646  -0.29272  -0.29001  -0.28792
 Alpha  occ. eigenvalues --   -0.27844  -0.26011  -0.25072  -0.24650  -0.23666
 Alpha  occ. eigenvalues --   -0.23439  -0.23268  -0.22565  -0.22504  -0.21881
 Alpha  occ. eigenvalues --   -0.21823  -0.21434  -0.21176
 Alpha virt. eigenvalues --   -0.13124  -0.12731  -0.09491  -0.09433  -0.09132
 Alpha virt. eigenvalues --   -0.00104   0.01010   0.01383   0.02383   0.03334
 Alpha virt. eigenvalues --    0.03494   0.03611   0.04128   0.04984   0.06381
 Alpha virt. eigenvalues --    0.07309   0.07624   0.07980   0.08230   0.08366
 Alpha virt. eigenvalues --    0.09662   0.09955   0.10763   0.12539   0.16280
 Alpha virt. eigenvalues --    0.16672   0.16815   0.18277   0.18513   0.18605
 Alpha virt. eigenvalues --    0.19226   0.20098   0.21374   0.21508   0.21880
 Alpha virt. eigenvalues --    0.22180   0.23542   0.23761   0.24030   0.24690
 Alpha virt. eigenvalues --    0.25040   0.25427   0.27829   0.28992   0.29566
 Alpha virt. eigenvalues --    0.29924   0.30239   0.31994   0.33480   0.33862
 Alpha virt. eigenvalues --    0.34464   0.34888   0.35435   0.36192   0.37214
 Alpha virt. eigenvalues --    0.37989   0.38140   0.38573   0.38953   0.39209
 Alpha virt. eigenvalues --    0.39365   0.41971   0.43290   0.43957   0.45825
 Alpha virt. eigenvalues --    0.46014   0.47007   0.49253   0.49795   0.51733
 Alpha virt. eigenvalues --    0.53177   0.53721   0.53838   0.54255   0.54599
 Alpha virt. eigenvalues --    0.55434   0.56484   0.56968   0.57159   0.58928
 Alpha virt. eigenvalues --    0.59952   0.60475   0.61617   0.62428   0.62732
 Alpha virt. eigenvalues --    0.64205   0.65509   0.66306   0.66865   0.68775
 Alpha virt. eigenvalues --    0.69398   0.69783   0.70842   0.71526   0.72586
 Alpha virt. eigenvalues --    0.73499   0.73908   0.74283   0.75141   0.75717
 Alpha virt. eigenvalues --    0.76357   0.77777   0.79253   0.80190   0.80635
 Alpha virt. eigenvalues --    0.82120   0.82192   0.83372   0.84287   0.85021
 Alpha virt. eigenvalues --    0.85608   0.87410   0.88893   0.89331   0.89660
 Alpha virt. eigenvalues --    0.91361   0.91504   0.92121   0.93182   0.93443
 Alpha virt. eigenvalues --    0.94019   0.94891   0.96747   0.98266   0.99993
 Alpha virt. eigenvalues --    1.00425   1.00543   1.01844   1.02599   1.03594
 Alpha virt. eigenvalues --    1.04126   1.04741   1.06162   1.06486   1.07034
 Alpha virt. eigenvalues --    1.08183   1.09871   1.10690   1.11046   1.11576
 Alpha virt. eigenvalues --    1.12827   1.13865   1.14551   1.16393   1.16885
 Alpha virt. eigenvalues --    1.17825   1.18437   1.18748   1.19409   1.20500
 Alpha virt. eigenvalues --    1.22414   1.23142   1.23515   1.23549   1.24139
 Alpha virt. eigenvalues --    1.24537   1.26206   1.26402   1.28005   1.28480
 Alpha virt. eigenvalues --    1.29809   1.30502   1.31082   1.31850   1.32758
 Alpha virt. eigenvalues --    1.33008   1.34689   1.35008   1.36781   1.37323
 Alpha virt. eigenvalues --    1.37680   1.39239   1.40837   1.42488   1.43251
 Alpha virt. eigenvalues --    1.44145   1.45131   1.46307   1.47763   1.50682
 Alpha virt. eigenvalues --    1.51185   1.53889   1.54920   1.55255   1.57612
 Alpha virt. eigenvalues --    1.59865   1.61964   1.63081   1.65156   1.67348
 Alpha virt. eigenvalues --    1.70745   1.72357   1.73461   1.75257   1.77643
 Alpha virt. eigenvalues --    1.78889   1.79679   1.82265   1.82832   1.86920
 Alpha virt. eigenvalues --    1.88503   1.90829   1.92011   1.94453   1.95856
 Alpha virt. eigenvalues --    1.99576   2.00362   2.02556   2.05967   2.12030
 Alpha virt. eigenvalues --    2.18699   2.36443   2.37055   2.37327   2.39434
 Alpha virt. eigenvalues --    2.42966   2.43688   2.44664   2.46559   2.47689
 Alpha virt. eigenvalues --    2.48949   2.51102   2.51909   2.52731   2.54632
 Alpha virt. eigenvalues --    2.55511   2.55684   2.57915   2.58307   2.58805
 Alpha virt. eigenvalues --    2.60770   2.64180   2.65675   2.67129   2.67732
 Alpha virt. eigenvalues --    2.68432   2.69920   2.70770   2.74417   2.75888
 Alpha virt. eigenvalues --    2.76511   2.79588   2.80672   2.82796   2.86856
 Alpha virt. eigenvalues --    2.89272   2.92470   3.06734   3.09653   3.11733
 Alpha virt. eigenvalues --    3.12587   3.15180   3.16242   3.18311   3.18777
 Alpha virt. eigenvalues --    3.20633   3.21175   3.22051   3.25673   3.28871
 Alpha virt. eigenvalues --    3.31519   3.41281   3.43858   3.47877   3.50014
 Alpha virt. eigenvalues --    3.50559   3.57205   3.60967   3.62400   3.65585
 Alpha virt. eigenvalues --    3.74961   3.77676   3.79342   3.83004   3.86648
 Alpha virt. eigenvalues --    3.88466   3.90576   3.94217   3.95061   3.95429
 Alpha virt. eigenvalues --    4.00112   4.01036   4.05591   4.06212   4.07702
 Alpha virt. eigenvalues --    4.08314   4.08761   4.10046   4.21787   4.28489
 Alpha virt. eigenvalues --    4.30656   4.31453   4.32128   4.33081   4.33466
 Alpha virt. eigenvalues --    4.33942   4.34517   4.34756   4.35841   4.36910
 Alpha virt. eigenvalues --    4.37882   4.38580   4.38860   4.40222   4.40674
 Alpha virt. eigenvalues --    4.43558   4.44888   4.46735   4.50291   4.51555
 Alpha virt. eigenvalues --    4.52271   4.52760   4.55657   5.42493   5.47288
 Alpha virt. eigenvalues --    5.49145   5.74979   5.79801   5.84488   5.92380
 Alpha virt. eigenvalues --    5.95898   5.98708   6.04662   6.06609   6.10181
 Alpha virt. eigenvalues --    6.11384   6.12849   6.27751   6.35609   6.89779
 Alpha virt. eigenvalues --    6.93995   6.96072   7.00831   7.01805   7.06663
 Alpha virt. eigenvalues --    8.43700   8.44256   8.44826   8.45586   8.48669
 Alpha virt. eigenvalues --    8.50438   8.54044   8.54660   8.59620   8.83935
 Alpha virt. eigenvalues --    9.79005   9.81350   9.83437   9.87488   9.88652
 Alpha virt. eigenvalues --   10.05584  10.06739  10.08240  14.07254  14.14530
 Alpha virt. eigenvalues --   16.91165  20.29846  20.30361  20.30942  20.31403
 Alpha virt. eigenvalues --   20.39408  20.43849  20.97162  21.00818  21.05942
 Alpha virt. eigenvalues --   23.00892  23.02525  23.04229  25.92705  30.18829
 Alpha virt. eigenvalues --   30.22779  30.25324  30.29721  30.31054  30.34462
 Alpha virt. eigenvalues --   42.84603  42.85831  42.87255  43.00703  43.01878
 Alpha virt. eigenvalues --   65.12900  65.19112  78.21517  81.97038  86.09373
 Alpha virt. eigenvalues --   86.12493  86.15990 112.74606 112.74943 112.75399
 Alpha virt. eigenvalues --  112.75673 112.81433 112.84411 123.15276 123.17008
 Alpha virt. eigenvalues --  123.19711 162.94788 162.99010 163.01570 163.06457
 Alpha virt. eigenvalues --  163.07818 163.11216 257.09179 282.47320 282.52617
 Alpha virt. eigenvalues --  428.69475 428.71763 428.74633 431.83928 772.78110
 Alpha virt. eigenvalues -- 1043.639201043.685182068.392585495.203375634.50401
 Alpha virt. eigenvalues -- 5634.56510********************
          Condensed to atoms (all electrons):
               1          2          3          4          5          6
     1  Pt  77.992541  -0.051193   0.050338   0.040679  -0.036724   0.038714
     2  N   -0.051193   5.897853   0.592839   0.593151   0.007920  -0.000086
     3  O    0.050338   0.592839   7.547543  -0.077272  -0.000891   0.000722
     4  O    0.040679   0.593151  -0.077272   7.548751  -0.000039  -0.002989
     5  N   -0.036724   0.007920  -0.000891  -0.000039   5.911445   0.551533
     6  O    0.038714  -0.000086   0.000722  -0.002989   0.551533   7.591778
     7  O    0.053405  -0.000820   0.000002   0.000622   0.596134  -0.080398
     8  Cl   0.021400   0.010469  -0.003109  -0.019412   0.016362  -0.002765
     9  N   -0.031624   0.017096  -0.004900  -0.001062   0.000513   0.000673
    10  O    0.049794  -0.001279   0.000327   0.000012   0.002624  -0.003571
    11  O    0.056623  -0.006723  -0.001530   0.000027  -0.000750   0.000567
    12  Br  -0.006442  -0.011861   0.001250   0.001215  -0.013100  -0.000305
    13  Br  -0.014620  -0.005623  -0.016824  -0.002364  -0.012398   0.001282
               7          8          9         10         11         12
     1  Pt   0.053405   0.021400  -0.031624   0.049794   0.056623  -0.006442
     2  N   -0.000820   0.010469   0.017096  -0.001279  -0.006723  -0.011861
     3  O    0.000002  -0.003109  -0.004900   0.000327  -0.001530   0.001250
     4  O    0.000622  -0.019412  -0.001062   0.000012   0.000027   0.001215
     5  N    0.596134   0.016362   0.000513   0.002624  -0.000750  -0.013100
     6  O   -0.080398  -0.002765   0.000673  -0.003571   0.000567  -0.000305
     7  O    7.563442  -0.017389  -0.001395   0.001045  -0.000002  -0.017810
     8  Cl  -0.017389  17.509452  -0.003348   0.001186   0.000558  -0.034706
     9  N   -0.001395  -0.003348   5.911806   0.576008   0.597362  -0.008505
    10  O    0.001045   0.001186   0.576008   7.543479  -0.072900  -0.017298
    11  O   -0.000002   0.000558   0.597362  -0.072900   7.528031  -0.003215
    12  Br  -0.017810  -0.034706  -0.008505  -0.017298  -0.003215  35.562022
    13  Br   0.001127  -0.058593  -0.007660  -0.001655  -0.018443  -0.058035
              13
     1  Pt  -0.014620
     2  N   -0.005623
     3  O   -0.016824
     4  O   -0.002364
     5  N   -0.012398
     6  O    0.001282
     7  O    0.001127
     8  Cl  -0.058593
     9  N   -0.007660
    10  O   -0.001655
    11  O   -0.018443
    12  Br  -0.058035
    13  Br  35.587946
 Mulliken charges:
               1
     1  Pt  -0.162892
     2  N   -0.041743
     3  O   -0.088495
     4  O   -0.081323
     5  N   -0.022631
     6  O   -0.095156
     7  O   -0.097963
     8  Cl  -0.420106
     9  N   -0.044963
    10  O   -0.077771
    11  O   -0.079605
    12  Br  -0.393210
    13  Br  -0.394142
 Sum of Mulliken charges =  -2.00000
 Mulliken charges with hydrogens summed into heavy atoms:
               1
     1  Pt  -0.162892
     2  N   -0.041743
     3  O   -0.088495
     4  O   -0.081323
     5  N   -0.022631
     6  O   -0.095156
     7  O   -0.097963
     8  Cl  -0.420106
     9  N   -0.044963
    10  O   -0.077771
    11  O   -0.079605
    12  Br  -0.393210
    13  Br  -0.394142
 Electronic spatial extent (au):  <R**2>=           4117.5244
 Charge=             -2.0000 electrons
 Dipole moment (field-independent basis, Debye):
    X=              0.0615    Y=              0.6820    Z=              2.2492  Tot=              2.3511
 Quadrupole moment (field-independent basis, Debye-Ang):
   XX=           -165.7207   YY=           -163.0253   ZZ=           -163.8867
   XY=              0.0008   XZ=             -1.7647   YZ=             -0.2461
 Traceless Quadrupole moment (field-independent basis, Debye-Ang):
   XX=             -1.5098   YY=              1.1856   ZZ=              0.3242
   XY=              0.0008   XZ=             -1.7647   YZ=             -0.2461
 Octapole moment (field-independent basis, Debye-Ang**2):
  XXX=             11.7692  YYY=            -53.6101  ZZZ=             10.9023  XYY=              4.8366
  XXY=            -16.0407  XXZ=             -1.8675  XZZ=              4.8297  YZZ=            -18.8319
  YYZ=              8.0107  XYZ=             -1.1384
 Hexadecapole moment (field-independent basis, Debye-Ang**3):
 XXXX=          -1836.9293 YYYY=          -1842.7606 ZZZZ=          -1570.8978 XXXY=             27.9545
 XXXZ=            -26.5852 YYYX=            -18.0264 YYYZ=             13.9286 ZZZX=             -2.7997
 ZZZY=             -2.0656 XXYY=           -641.8030 XXZZ=           -544.7140 YYZZ=           -521.5046
 XXYZ=             -8.6266 YYXZ=              6.7217 ZZXY=              0.3990
 N-N= 4.081116954467D+03 E-N=-6.355035895480D+04  KE= 2.299881349382D+04
 Calculating spin-rotation constants.
 Leave Link  601 at Sat Oct 30 07:40:17 2021, MaxMem=  2013265920 cpu:         8.4
 (Enter /scr/programas/g09/l9999.exe)
 1\1\GINC-NQTCM04\SP\RPBEPBE\Gen\Br2Cl1N3O6Pt1(2-)\DIEGO\30-Oct-2021\0\
 \#PBEPBE/gen scf=maxcycle=200 NMR=GIAO Scrf=(solvent=water)\\estrutura
  58\\-2,1\Pt,0,0.037739,-0.185464,-0.071871\N,0,-1.105753,-1.967971,-0
 .152598\O,0,-2.024653,-2.107287,0.629296\O,0,-0.793316,-2.800793,-0.98
 229\N,0,1.777406,-1.380774,-0.087388\O,0,1.746974,-2.398901,0.583291\O
 ,0,2.733063,-1.043305,-0.754425\Cl,0,0.067174,-0.114224,-2.498536\N,0,
 0.077954,-0.244498,2.032584\O,0,1.176372,-0.276281,2.561871\O,0,-0.963
 835,-0.239459,2.655032\Br,0,1.419624,1.987234,0.050741\Br,0,-2.114759,
 1.226736,-0.10815\\Version=EM64L-G09RevD.01\State=1-A\HF=-23322.518784
 8\RMSD=3.795e-09\Dipole=-0.0242059,-0.2683345,0.8848991\Quadrupole=-1.
 1225235,0.8814573,0.2410662,0.0006233,1.3120279,0.1829362\PG=C01 [X(Br
 2Cl1N3O6Pt1)]\\@


 A HARD FALL SHOULD MEAN A HIGH BOUNCE 
 IF ONE IS MADE OF THE RIGHT MATERIAL.

                -- THE CHEMIST ANALYST, MARCH 1950
 Job cpu time:       0 days  1 hours 46 minutes 59.2 seconds.
 File lengths (MBytes):  RWF=    218 Int=      0 D2E=      0 Chk=     17 Scr=      1
 Normal termination of Gaussian 09 at Sat Oct 30 07:40:17 2021.
