 Entering Gaussian System, Link 0=g09
 Input=estrutura28freq_LANL2DZ_TZVP.com
 Output=estrutura28freq_LANL2DZ_TZVP.log
 Initial command:
 /scr/programas/g09/l1.exe "/scr/diego/Gau-6275.inp" -scrdir="/scr/diego/"
 Entering Link 1 = /scr/programas/g09/l1.exe PID=      6277.
  
 Copyright (c) 1988,1990,1992,1993,1995,1998,2003,2009,2013,
            Gaussian, Inc.  All Rights Reserved.
  
 This is part of the Gaussian(R) 09 program.  It is based on
 the Gaussian(R) 03 system (copyright 2003, Gaussian, Inc.),
 the Gaussian(R) 98 system (copyright 1998, Gaussian, Inc.),
 the Gaussian(R) 94 system (copyright 1995, Gaussian, Inc.),
 the Gaussian 92(TM) system (copyright 1992, Gaussian, Inc.),
 the Gaussian 90(TM) system (copyright 1990, Gaussian, Inc.),
 the Gaussian 88(TM) system (copyright 1988, Gaussian, Inc.),
 the Gaussian 86(TM) system (copyright 1986, Carnegie Mellon
 University), and the Gaussian 82(TM) system (copyright 1983,
 Carnegie Mellon University). Gaussian is a federally registered
 trademark of Gaussian, Inc.
  
 This software contains proprietary and confidential information,
 including trade secrets, belonging to Gaussian, Inc.
  
 This software is provided under written license and may be
 used, copied, transmitted, or stored only in accord with that
 written license.
  
 The following legend is applicable only to US Government
 contracts under FAR:
  
                    RESTRICTED RIGHTS LEGEND
  
 Use, reproduction and disclosure by the US Government is
 subject to restrictions as set forth in subparagraphs (a)
 and (c) of the Commercial Computer Software - Restricted
 Rights clause in FAR 52.227-19.
  
 Gaussian, Inc.
 340 Quinnipiac St., Bldg. 40, Wallingford CT 06492
  
  
 ---------------------------------------------------------------
 Warning -- This program may not be used in any manner that
 competes with the business of Gaussian, Inc. or will provide
 assistance to any competitor of Gaussian, Inc.  The licensee
 of this program is prohibited from giving any competitor of
 Gaussian, Inc. access to this program.  By using this program,
 the user acknowledges that Gaussian, Inc. is engaged in the
 business of creating and licensing software in the field of
 computational chemistry and represents and warrants to the
 licensee that it is not a competitor of Gaussian, Inc. and that
 it will not use this program in any manner prohibited above.
 ---------------------------------------------------------------
  

 Cite this work as:
 Gaussian 09, Revision D.01,
 M. J. Frisch, G. W. Trucks, H. B. Schlegel, G. E. Scuseria, 
 M. A. Robb, J. R. Cheeseman, G. Scalmani, V. Barone, B. Mennucci, 
 G. A. Petersson, H. Nakatsuji, M. Caricato, X. Li, H. P. Hratchian, 
 A. F. Izmaylov, J. Bloino, G. Zheng, J. L. Sonnenberg, M. Hada, 
 M. Ehara, K. Toyota, R. Fukuda, J. Hasegawa, M. Ishida, T. Nakajima, 
 Y. Honda, O. Kitao, H. Nakai, T. Vreven, J. A. Montgomery, Jr., 
 J. E. Peralta, F. Ogliaro, M. Bearpark, J. J. Heyd, E. Brothers, 
 K. N. Kudin, V. N. Staroverov, T. Keith, R. Kobayashi, J. Normand, 
 K. Raghavachari, A. Rendell, J. C. Burant, S. S. Iyengar, J. Tomasi, 
 M. Cossi, N. Rega, J. M. Millam, M. Klene, J. E. Knox, J. B. Cross, 
 V. Bakken, C. Adamo, J. Jaramillo, R. Gomperts, R. E. Stratmann, 
 O. Yazyev, A. J. Austin, R. Cammi, C. Pomelli, J. W. Ochterski, 
 R. L. Martin, K. Morokuma, V. G. Zakrzewski, G. A. Voth, 
 P. Salvador, J. J. Dannenberg, S. Dapprich, A. D. Daniels, 
 O. Farkas, J. B. Foresman, J. V. Ortiz, J. Cioslowski, 
 and D. J. Fox, Gaussian, Inc., Wallingford CT, 2013.
 
 ******************************************
 Gaussian 09:  EM64L-G09RevD.01 24-Apr-2013
                30-Oct-2021 
 ******************************************
 %mem=15Gb
 %nproc=4
 Will use up to    4 processors via shared memory.
 ----------------------------------------------------------
 #PBEPBE/gen scf=maxcycle=200 NMR=GIAO Scrf=(solvent=water)
 ----------------------------------------------------------
 1/38=1/1;
 2/12=2,17=6,18=5,40=1/2;
 3/5=7,11=2,16=1,25=1,30=1,70=2201,72=1,74=1009/1,2,8,3;
 4//1;
 5/5=2,7=200,38=5,53=1/2;
 8/6=1,10=90,11=11/1;
 10/13=100,45=16/2;
 6/7=2,8=2,9=2,10=2,28=1/1;
 99/9=1/99;
 Leave Link    1 at Sat Oct 30 02:07:16 2021, MaxMem=  2013265920 cpu:         0.2
 (Enter /scr/programas/g09/l101.exe)
 ------------
 estrutura 28
 ------------
 Symbolic Z-matrix:
 Charge = -2 Multiplicity = 1
 Pt                    0.12347  -0.22684  -0.01195 
 Cl                   -0.1421   -2.61135  -0.13729 
 Br                    0.41036   2.2826    0.13237 
 N                     2.21525  -0.48021  -0.01559 
 O                     2.87824   0.20766  -0.76708 
 O                     2.69237  -1.31258   0.73033 
 Cl                    0.10267  -0.32562   2.37377 
 Cl                    0.13192  -0.12704  -2.39937 
 Br                   -2.44679   0.05976  -0.01511 
 
 NAtoms=      9 NQM=        9 NQMF=       0 NMMI=      0 NMMIF=      0
                NMic=       0 NMicF=      0.
                    Isotopes and Nuclear Properties:
 (Nuclear quadrupole moments (NQMom) in fm**2, nuclear magnetic moments (NMagM)
  in nuclear magnetons)

  Atom         1           2           3           4           5           6           7           8           9
 IAtWgt=         195          35          79          14          16          16          35          35          79
 AtmWgt= 194.9648000  34.9688527  78.9183361  14.0030740  15.9949146  15.9949146  34.9688527  34.9688527  78.9183361
 NucSpn=           1           3           3           2           0           0           3           3           3
 AtZEff=   0.0000000   0.0000000   0.0000000   0.0000000   0.0000000   0.0000000   0.0000000   0.0000000   0.0000000
 NQMom=    0.0000000  -8.1650000  31.3000000   2.0440000   0.0000000   0.0000000  -8.1650000  -8.1650000  31.3000000
 NMagM=    0.6095000   0.8218740   2.1063990   0.4037610   0.0000000   0.0000000   0.8218740   0.8218740   2.1063990
 AtZNuc=  78.0000000  17.0000000  35.0000000   7.0000000   8.0000000   8.0000000  17.0000000  17.0000000  35.0000000
 Leave Link  101 at Sat Oct 30 02:07:16 2021, MaxMem=  2013265920 cpu:         0.4
 (Enter /scr/programas/g09/l202.exe)
                          Input orientation:                          
 ---------------------------------------------------------------------
 Center     Atomic      Atomic             Coordinates (Angstroms)
 Number     Number       Type             X           Y           Z
 ---------------------------------------------------------------------
      1         78           0        0.123472   -0.226841   -0.011947
      2         17           0       -0.142097   -2.611347   -0.137285
      3         35           0        0.410362    2.282598    0.132366
      4          7           0        2.215246   -0.480212   -0.015591
      5          8           0        2.878242    0.207661   -0.767081
      6          8           0        2.692371   -1.312576    0.730334
      7         17           0        0.102669   -0.325622    2.373768
      8         17           0        0.131918   -0.127044   -2.399368
      9         35           0       -2.446785    0.059762   -0.015109
 ---------------------------------------------------------------------
                    Distance matrix (angstroms):
                    1          2          3          4          5
     1  Pt   0.000000
     2  Cl   2.402521   0.000000
     3  Br   2.529904   4.932405   0.000000
     4  N    2.107066   3.180191   3.303425   0.000000
     5  O    2.889252   4.179222   3.347357   1.215512   0.000000
     6  O    2.886008   3.236322   4.300047   1.215270   2.141943
     7  Cl   2.387850   3.404385   3.452734   3.193104   4.225296
     8  Cl   2.389521   3.371033   3.506221   3.185495   3.212271
     9  Br   2.586189   3.530062   3.622987   4.693198   5.379893
                    6          7          8          9
     6  O    0.000000
     7  Cl   3.222035   0.000000
     8  Cl   4.213839   4.777354   0.000000
     9  Br   5.371212   3.514964   3.517001   0.000000
 Stoichiometry    Br2Cl3NO2Pt(2-)
 Framework group  C1[X(Br2Cl3NO2Pt)]
 Deg. of freedom    21
 Full point group                 C1      NOp   1
 Largest Abelian subgroup         C1      NOp   1
 Largest concise Abelian subgroup C1      NOp   1
                         Standard orientation:                         
 ---------------------------------------------------------------------
 Center     Atomic      Atomic             Coordinates (Angstroms)
 Number     Number       Type             X           Y           Z
 ---------------------------------------------------------------------
      1         78           0       -0.123472   -0.226841    0.011947
      2         17           0        0.142100   -2.611347    0.137285
      3         35           0       -0.410365    2.282598   -0.132366
      4          7           0       -2.215246   -0.480215    0.015591
      5          8           0       -2.878242    0.207658    0.767081
      6          8           0       -2.692370   -1.312579   -0.730334
      7         17           0       -0.102669   -0.325622   -2.373768
      8         17           0       -0.131918   -0.127044    2.399368
      9         35           0        2.446785    0.059765    0.015109
 ---------------------------------------------------------------------
 Rotational constants (GHZ):      0.4538455      0.4122270      0.3362926
 Leave Link  202 at Sat Oct 30 02:07:16 2021, MaxMem=  2013265920 cpu:         0.0
 (Enter /scr/programas/g09/l301.exe)
 General basis read from cards:  (5D, 7F)
 Centers:       4
 S 6 1.00
     Exponent=  1.2238326969D+04 Coefficients=  5.6000000000D-04
     Exponent=  4.0794423230D+03 Coefficients=  7.7000000000D-04
     Exponent=  1.3598141077D+03 Coefficients=  4.0600000000D-03
     Exponent=  4.5327136922D+02 Coefficients=  1.3910000000D-02
     Exponent=  1.5109045641D+02 Coefficients=  5.2990000000D-02
     Exponent=  5.0363485469D+01 Coefficients=  1.6952000000D-01
 S 1 1.00
     Exponent=  1.6787828490D+01 Coefficients=  1.0000000000D+00
 S 1 1.00
     Exponent=  5.5959428299D+00 Coefficients=  1.0000000000D+00
 S 1 1.00
     Exponent=  1.8653142766D+00 Coefficients=  1.0000000000D+00
 S 1 1.00
     Exponent=  6.2177142554D-01 Coefficients=  1.0000000000D+00
 S 1 1.00
     Exponent=  2.0725714185D-01 Coefficients=  1.0000000000D+00
 P 4 1.00
     Exponent=  5.4142548249D+01 Coefficients=  3.9700000000D-03
     Exponent=  1.6659245615D+01 Coefficients=  1.9540000000D-02
     Exponent=  5.1259217277D+00 Coefficients=  9.9790000000D-02
     Exponent=  1.5772066854D+00 Coefficients=  3.2845000000D-01
 P 1 1.00
     Exponent=  4.8529436475D-01 Coefficients=  1.0000000000D+00
 P 1 1.00
     Exponent=  1.4932134300D-01 Coefficients=  1.0000000000D+00
 D 1 1.00
     Exponent=  4.7700000000D-01 Coefficients=  1.0000000000D+00
 D 1 1.00
     Exponent=  1.5026000000D-01 Coefficients=  1.0000000000D+00
 ****
 Centers:       5      6
 S 6 1.00
     Exponent=  1.6178118231D+04 Coefficients=  6.0000000000D-04
     Exponent=  5.3927060771D+03 Coefficients=  7.8000000000D-04
     Exponent=  1.7975686924D+03 Coefficients=  4.1000000000D-03
     Exponent=  5.9918956413D+02 Coefficients=  1.3880000000D-02
     Exponent=  1.9972985471D+02 Coefficients=  5.2770000000D-02
     Exponent=  6.6576618236D+01 Coefficients=  1.6924000000D-01
 S 1 1.00
     Exponent=  2.2192206079D+01 Coefficients=  1.0000000000D+00
 S 1 1.00
     Exponent=  7.3974020263D+00 Coefficients=  1.0000000000D+00
 S 1 1.00
     Exponent=  2.4658006754D+00 Coefficients=  1.0000000000D+00
 S 1 1.00
     Exponent=  8.2193355847D-01 Coefficients=  1.0000000000D+00
 S 1 1.00
     Exponent=  2.7397785282D-01 Coefficients=  1.0000000000D+00
 P 4 1.00
     Exponent=  7.3854398670D+01 Coefficients=  4.0200000000D-03
     Exponent=  2.2724430360D+01 Coefficients=  2.0130000000D-02
     Exponent=  6.9921324184D+00 Coefficients=  1.0470000000D-01
     Exponent=  2.1514253595D+00 Coefficients=  3.3605000000D-01
 P 1 1.00
     Exponent=  6.6197703370D-01 Coefficients=  1.0000000000D+00
 P 1 1.00
     Exponent=  2.0368524114D-01 Coefficients=  1.0000000000D+00
 D 1 1.00
     Exponent=  9.2880000000D-01 Coefficients=  1.0000000000D+00
 D 1 1.00
     Exponent=  2.2975000000D-01 Coefficients=  1.0000000000D+00
 ****
 Centers:       2      7      8
 S 7 1.00
     Exponent=  7.7142817164D+04 Coefficients=  1.0600000000D-03
     Exponent=  2.8051933514D+04 Coefficients=  6.4000000000D-04
     Exponent=  1.0200703096D+04 Coefficients=  3.9600000000D-03
     Exponent=  3.7093465804D+03 Coefficients=  9.8300000000D-03
     Exponent=  1.3488533020D+03 Coefficients=  3.2690000000D-02
     Exponent=  4.9049210981D+02 Coefficients=  9.9520000000D-02
     Exponent=  1.7836076720D+02 Coefficients=  2.6555000000D-01
 S 1 1.00
     Exponent=  6.4858460801D+01 Coefficients=  1.0000000000D+00
 S 1 1.00
     Exponent=  2.3584894837D+01 Coefficients=  1.0000000000D+00
 S 1 1.00
     Exponent=  8.5763253951D+00 Coefficients=  1.0000000000D+00
 S 1 1.00
     Exponent=  3.1186637801D+00 Coefficients=  1.0000000000D+00
 S 1 1.00
     Exponent=  1.1340595564D+00 Coefficients=  1.0000000000D+00
 S 1 1.00
     Exponent=  4.1238529323D-01 Coefficients=  1.0000000000D+00
 S 1 1.00
     Exponent=  1.4995828845D-01 Coefficients=  1.0000000000D+00
 S 1 1.00
     Exponent=  5.4530286708D-02 Coefficients=  1.0000000000D+00
 P 5 1.00
     Exponent=  6.9498536057D+02 Coefficients=  2.0000000000D-03
     Exponent=  2.3166178686D+02 Coefficients=  8.9500000000D-03
     Exponent=  7.7220595619D+01 Coefficients=  5.1130000000D-02
     Exponent=  2.5740198540D+01 Coefficients=  2.1011000000D-01
     Exponent=  8.5800661799D+00 Coefficients=  4.9738000000D-01
 P 1 1.00
     Exponent=  2.8600220600D+00 Coefficients=  1.0000000000D+00
 P 1 1.00
     Exponent=  9.5334068665D-01 Coefficients=  1.0000000000D+00
 P 1 1.00
     Exponent=  3.1778022888D-01 Coefficients=  1.0000000000D+00
 P 1 1.00
     Exponent=  1.0592674296D-01 Coefficients=  1.0000000000D+00
 P 1 1.00
     Exponent=  3.5308914320D-02 Coefficients=  1.0000000000D+00
 D 1 1.00
     Exponent=  5.5696000000D-01 Coefficients=  1.0000000000D+00
 D 1 1.00
     Exponent=  1.5619100000D-01 Coefficients=  1.0000000000D+00
 ****
 Centers:       3      9
 S 7 1.00
     Exponent=  3.4867099512D+05 Coefficients=  2.4100000000D-03
     Exponent=  1.3946839805D+05 Coefficients=  1.2000000000D-04
     Exponent=  5.5787359218D+04 Coefficients=  5.8500000000D-03
     Exponent=  2.2314943687D+04 Coefficients=  8.2100000000D-03
     Exponent=  8.9259774750D+03 Coefficients=  2.4090000000D-02
     Exponent=  3.5703909900D+03 Coefficients=  5.7250000000D-02
     Exponent=  1.4281563960D+03 Coefficients=  1.4467000000D-01
 S 1 1.00
     Exponent=  5.7126255840D+02 Coefficients=  1.0000000000D+00
 S 1 1.00
     Exponent=  2.2850502336D+02 Coefficients=  1.0000000000D+00
 S 1 1.00
     Exponent=  9.1402009344D+01 Coefficients=  1.0000000000D+00
 S 1 1.00
     Exponent=  3.6560803737D+01 Coefficients=  1.0000000000D+00
 S 1 1.00
     Exponent=  1.4624321495D+01 Coefficients=  1.0000000000D+00
 S 1 1.00
     Exponent=  5.8497285980D+00 Coefficients=  1.0000000000D+00
 S 1 1.00
     Exponent=  2.3398914392D+00 Coefficients=  1.0000000000D+00
 S 1 1.00
     Exponent=  9.3595657568D-01 Coefficients=  1.0000000000D+00
 S 1 1.00
     Exponent=  3.7438263027D-01 Coefficients=  1.0000000000D+00
 S 1 1.00
     Exponent=  1.4975305211D-01 Coefficients=  1.0000000000D+00
 S 1 1.00
     Exponent=  5.9901220843D-02 Coefficients=  1.0000000000D+00
 P 5 1.00
     Exponent=  4.2715043612D+03 Coefficients=  2.0900000000D-03
     Exponent=  1.5532743132D+03 Coefficients=  5.5700000000D-03
     Exponent=  5.6482702297D+02 Coefficients=  3.0250000000D-02
     Exponent=  2.0539164472D+02 Coefficients=  1.2196000000D-01
     Exponent=  7.4687870806D+01 Coefficients=  3.7861000000D-01
 P 1 1.00
     Exponent=  2.7159225748D+01 Coefficients=  1.0000000000D+00
 P 1 1.00
     Exponent=  9.8760820901D+00 Coefficients=  1.0000000000D+00
 P 1 1.00
     Exponent=  3.5913025782D+00 Coefficients=  1.0000000000D+00
 P 1 1.00
     Exponent=  1.3059282103D+00 Coefficients=  1.0000000000D+00
 P 1 1.00
     Exponent=  4.7488298555D-01 Coefficients=  1.0000000000D+00
 P 1 1.00
     Exponent=  1.7268472202D-01 Coefficients=  1.0000000000D+00
 P 1 1.00
     Exponent=  6.2794444370D-02 Coefficients=  1.0000000000D+00
 P 1 1.00
     Exponent=  2.2834343407D-02 Coefficients=  1.0000000000D+00
 D 4 1.00
     Exponent=  1.5776624282D+02 Coefficients=  7.9800000000D-03
     Exponent=  5.2588747607D+01 Coefficients=  4.9870000000D-02
     Exponent=  1.7529582536D+01 Coefficients=  2.2405000000D-01
     Exponent=  5.8431941786D+00 Coefficients=  4.4250000000D-01
 D 1 1.00
     Exponent=  1.9477313929D+00 Coefficients=  1.0000000000D+00
 D 1 1.00
     Exponent=  6.4924379762D-01 Coefficients=  1.0000000000D+00
 F 1 1.00
     Exponent=  1.6480000000D+00 Coefficients=  1.0000000000D+00
 F 1 1.00
     Exponent=  4.5490000000D-01 Coefficients=  1.0000000000D+00
 ****
 Centers:       1
 S 9 1.00
     Exponent=  2.1644816090D+06 Coefficients=  1.2320000000D-02
     Exponent=  1.0822408045D+06 Coefficients=  1.2970000000D-02
     Exponent=  5.4112040224D+05 Coefficients=  2.6370000000D-02
     Exponent=  2.7056020112D+05 Coefficients=  9.0400000000D-03
     Exponent=  1.3528010056D+05 Coefficients=  3.4980000000D-02
     Exponent=  6.7640050280D+04 Coefficients=  1.2220000000D-02
     Exponent=  3.3820025140D+04 Coefficients=  6.0520000000D-02
     Exponent=  1.6910012570D+04 Coefficients=  6.4930000000D-02
     Exponent=  8.4550062850D+03 Coefficients=  1.3819000000D-01
 S 1 1.00
     Exponent=  4.2275031425D+03 Coefficients=  1.0000000000D+00
 S 1 1.00
     Exponent=  2.1137515713D+03 Coefficients=  1.0000000000D+00
 S 1 1.00
     Exponent=  1.0568757856D+03 Coefficients=  1.0000000000D+00
 S 1 1.00
     Exponent=  5.2843789281D+02 Coefficients=  1.0000000000D+00
 S 1 1.00
     Exponent=  2.6421894641D+02 Coefficients=  1.0000000000D+00
 S 1 1.00
     Exponent=  1.3210947320D+02 Coefficients=  1.0000000000D+00
 S 1 1.00
     Exponent=  6.6054736602D+01 Coefficients=  1.0000000000D+00
 S 1 1.00
     Exponent=  3.3027368301D+01 Coefficients=  1.0000000000D+00
 S 1 1.00
     Exponent=  1.6513684150D+01 Coefficients=  1.0000000000D+00
 S 1 1.00
     Exponent=  8.2568420752D+00 Coefficients=  1.0000000000D+00
 S 1 1.00
     Exponent=  4.1284210376D+00 Coefficients=  1.0000000000D+00
 S 1 1.00
     Exponent=  2.0642105188D+00 Coefficients=  1.0000000000D+00
 S 1 1.00
     Exponent=  1.0321052594D+00 Coefficients=  1.0000000000D+00
 S 1 1.00
     Exponent=  5.1605262970D-01 Coefficients=  1.0000000000D+00
 S 1 1.00
     Exponent=  2.5802631485D-01 Coefficients=  1.0000000000D+00
 S 1 1.00
     Exponent=  1.2901315743D-01 Coefficients=  1.0000000000D+00
 S 1 1.00
     Exponent=  6.4506578713D-02 Coefficients=  1.0000000000D+00
 P 7 1.00
     Exponent=  3.2357915258D+04 Coefficients=  5.0200000000D-03
     Exponent=  1.4381295670D+04 Coefficients=  2.0200000000D-03
     Exponent=  6.3916869645D+03 Coefficients=  1.8070000000D-02
     Exponent=  2.8407497620D+03 Coefficients=  3.6620000000D-02
     Exponent=  1.2625554498D+03 Coefficients=  1.1172000000D-01
     Exponent=  5.6113575545D+02 Coefficients=  2.5586000000D-01
     Exponent=  2.4939366909D+02 Coefficients=  4.2608000000D-01
 P 1 1.00
     Exponent=  1.1084163071D+02 Coefficients=  1.0000000000D+00
 P 1 1.00
     Exponent=  4.9262946981D+01 Coefficients=  1.0000000000D+00
 P 1 1.00
     Exponent=  2.1894643103D+01 Coefficients=  1.0000000000D+00
 P 1 1.00
     Exponent=  9.7309524900D+00 Coefficients=  1.0000000000D+00
 P 1 1.00
     Exponent=  4.3248677733D+00 Coefficients=  1.0000000000D+00
 P 1 1.00
     Exponent=  1.9221634548D+00 Coefficients=  1.0000000000D+00
 P 1 1.00
     Exponent=  8.5429486881D-01 Coefficients=  1.0000000000D+00
 P 1 1.00
     Exponent=  3.7968660836D-01 Coefficients=  1.0000000000D+00
 P 1 1.00
     Exponent=  1.6874960372D-01 Coefficients=  1.0000000000D+00
 P 1 1.00
     Exponent=  7.4999823874D-02 Coefficients=  1.0000000000D+00
 P 1 1.00
     Exponent=  3.3333255055D-02 Coefficients=  1.0000000000D+00
 D 5 1.00
     Exponent=  1.9119003508D+03 Coefficients=  4.3300000000D-03
     Exponent=  7.6476014031D+02 Coefficients=  1.7780000000D-02
     Exponent=  3.0590405613D+02 Coefficients=  8.9710000000D-02
     Exponent=  1.2236162245D+02 Coefficients=  3.1123000000D-01
     Exponent=  4.8944648980D+01 Coefficients=  5.3206000000D-01
 D 1 1.00
     Exponent=  1.9577859592D+01 Coefficients=  1.0000000000D+00
 D 1 1.00
     Exponent=  7.8311438368D+00 Coefficients=  1.0000000000D+00
 D 1 1.00
     Exponent=  3.1324575347D+00 Coefficients=  1.0000000000D+00
 D 1 1.00
     Exponent=  1.2529830139D+00 Coefficients=  1.0000000000D+00
 D 1 1.00
     Exponent=  5.0119320556D-01 Coefficients=  1.0000000000D+00
 D 1 1.00
     Exponent=  2.0047728222D-01 Coefficients=  1.0000000000D+00
 D 1 1.00
     Exponent=  8.0190912889D-02 Coefficients=  1.0000000000D+00
 D 1 1.00
     Exponent=  3.2076365156D-02 Coefficients=  1.0000000000D+00
 F 4 1.00
     Exponent=  8.2289680979D+01 Coefficients=  6.1870000000D-02
     Exponent=  2.9923520356D+01 Coefficients=  2.4823000000D-01
     Exponent=  1.0881280130D+01 Coefficients=  4.9956000000D-01
     Exponent=  3.9568291380D+00 Coefficients=  4.0380000000D-01
 F 1 1.00
     Exponent=  1.4388469593D+00 Coefficients=  1.0000000000D+00
 F 1 1.00
     Exponent=  5.2321707610D-01 Coefficients=  1.0000000000D+00
 G 1 1.00
     Exponent=  2.6700000000D+00 Coefficients=  1.0000000000D+00
 G 1 1.00
     Exponent=  9.0960000000D-01 Coefficients=  1.0000000000D+00
 ****
 Ernie: Thresh=  0.10000D-02 Tol=  0.10000D-05 Strict=F.
 There are   520 symmetry adapted cartesian basis functions of A   symmetry.
 There are   460 symmetry adapted basis functions of A   symmetry.
   460 basis functions,   768 primitive gaussians,   520 cartesian basis functions
   112 alpha electrons      112 beta electrons
       nuclear repulsion energy      3632.2846705310 Hartrees.
 IExCor= 1009 DFT=T Ex=PBE Corr=PBE ExCW=0 ScaHFX=  0.000000
 ScaDFX=  1.000000  1.000000  1.000000  1.000000 ScalE2=  1.000000  1.000000
 IRadAn=      0 IRanWt=     -1 IRanGd=            0 ICorTp=0 IEmpDi=  4
 NAtoms=    9 NActive=    9 NUniq=    9 SFac= 1.00D+00 NAtFMM=   60 NAOKFM=F Big=F
 Integral buffers will be    131072 words long.
 Raffenetti 2 integral format.
 Two-electron integral symmetry is turned on.
 ------------------------------------------------------------------------------
 Polarizable Continuum Model (PCM)
 =================================
 Model                : PCM (using non-symmetric T matrix).
 Atomic radii         : UFF (Universal Force Field).
 Polarization charges : Total charges.
 Charge compensation  : None.
 Solution method      : On-the-fly selection.
 Cavity type          : Scaled VdW (van der Waals Surface) (Alpha=1.100).
 Cavity algorithm     : GePol (No added spheres)
                        Default sphere list used, NSphG=    9.
                        Lebedev-Laikov grids with approx.  5.0 points / Ang**2.
                        Smoothing algorithm: Karplus/York (Gamma=1.0000).
                        Polarization charges: spherical gaussians, with
                                              point-specific exponents (IZeta= 3).
                        Self-potential: point-specific (ISelfS= 7).
                        Self-field    : sphere-specific E.n sum rule (ISelfD= 2).
 Solvent              : Water, Eps=  78.355300 Eps(inf)=   1.777849
 ------------------------------------------------------------------------------
 Spheres list:
 ISph  on   Nord     Re0    Alpha      Xe            Ye            Ze
    1  Pt      1    1.3770  1.100     -0.123472     -0.226841      0.011947
    2  Cl      2    1.9735  1.100      0.142100     -2.611347      0.137285
    3  Br      3    2.0945  1.100     -0.410365      2.282598     -0.132366
    4   N      4    1.8300  1.100     -2.215246     -0.480215      0.015591
    5   O      5    1.7500  1.100     -2.878242      0.207658      0.767081
    6   O      6    1.7500  1.100     -2.692370     -1.312579     -0.730334
    7  Cl      7    1.9735  1.100     -0.102669     -0.325622     -2.373768
    8  Cl      8    1.9735  1.100     -0.131918     -0.127044      2.399368
    9  Br      9    2.0945  1.100      2.446785      0.059765      0.015109
 ------------------------------------------------------------------------------
 GePol: Number of generator spheres                  =       9
 GePol: Total number of spheres                      =       9
 GePol: Number of exposed spheres                    =       8 ( 88.89%)
 GePol: Number of points                             =    1513
 GePol: Average weight of points                     =       0.16
 GePol: Minimum weight of points                     =   0.40D-08
 GePol: Maximum weight of points                     =    0.21616
 GePol: Number of points with low weight             =      22
 GePol: Fraction of low-weight points (<1% of avg)   =       1.45%
 GePol: Cavity surface area                          =    237.714 Ang**2
 GePol: Cavity volume                                =    252.512 Ang**3
 Leave Link  301 at Sat Oct 30 02:07:16 2021, MaxMem=  2013265920 cpu:         0.8
 (Enter /scr/programas/g09/l302.exe)
 NPDir=0 NMtPBC=     1 NCelOv=     1 NCel=       1 NClECP=     1 NCelD=      1
         NCelK=      1 NCelE2=     1 NClLst=     1 CellRange=     0.0.
 One-electron integrals computed using PRISM.
 NBasis=   460 RedAO= T EigKep=  8.24D-05  NBF=   460
 NBsUse=   460 1.00D-06 EigRej= -1.00D+00 NBFU=   460
 Precomputing XC quadrature grid using
 IXCGrd= 4 IRadAn=           0 IRanWt=          -1 IRanGd=           0 AccXCQ= 0.00D+00.
 Defaulting to unpruned grid for atomic number  78.
 Generated NRdTot=       0 NPtTot=           0 NUsed=           0 NTot=          32
 NSgBfM=   468   468   468   468   468 MxSgAt=     9 MxSgA2=     9.
 Leave Link  302 at Sat Oct 30 02:07:17 2021, MaxMem=  2013265920 cpu:         2.8
 (Enter /scr/programas/g09/l308.exe)
 Leave Link  308 at Sat Oct 30 02:07:17 2021, MaxMem=  2013265920 cpu:         0.5
 (Enter /scr/programas/g09/l303.exe)
 DipDrv:  MaxL=1.
 Leave Link  303 at Sat Oct 30 02:07:17 2021, MaxMem=  2013265920 cpu:         0.3
 (Enter /scr/programas/g09/l401.exe)
 ExpMin= 2.28D-02 ExpMax= 2.16D+06 ExpMxC= 2.16D+06 IAcc=4 IRadAn=    199590 AccDes= 0.00D+00
 Harris functional with IExCor= 1009 and IRadAn=  199590 diagonalized for initial guess.
 HarFok:  IExCor= 1009 AccDes= 0.00D+00 IRadAn=    199590 IDoV= 1 UseB2=F ITyADJ=14
 ICtDFT=  3500011 ScaDFX=  1.000000  1.000000  1.000000  1.000000
 FoFCou: FMM=F IPFlag=           0 FMFlag=      100000 FMFlg1=           0
         NFxFlg=           0 DoJE=T BraDBF=F KetDBF=T FulRan=T
         wScrn=  0.000000 ICntrl=     500 IOpCl=  0 I1Cent=   200000004 NGrid=           0
         NMat0=    1 NMatS0=      1 NMatT0=    0 NMatD0=    1 NMtDS0=    0 NMtDT0=    0
 Petite list used in FoFCou.
 Harris En= -23845.2524904111    
 JPrj=0 DoOrth=F DoCkMO=F.
 Leave Link  401 at Sat Oct 30 02:07:31 2021, MaxMem=  2013265920 cpu:        57.4
 (Enter /scr/programas/g09/l502.exe)
 Closed shell SCF:
 Using DIIS extrapolation, IDIIS=  1040.
 Integral symmetry usage will be decided dynamically.
 IVT=      860624 IEndB=      860624 NGot=  2013265920 MDV=  2012716617
 LenX=  2012716617 LenY=  2012445697
 Requested convergence on RMS density matrix=1.00D-08 within 200 cycles.
 Requested convergence on MAX density matrix=1.00D-06.
 Requested convergence on             energy=1.00D-06.
 No special actions if energy rises.
 Fock matrices will be formed incrementally for  20 cycles.

 Cycle   1  Pass 1  IDiag  1:
 FoFJK:  IHMeth= 1 ICntrl=     500 DoSepK=F KAlg= 0 I1Cent=   0 FoldK=F
 IRaf= 770000000 NMat=   1 IRICut=       1 DoRegI=T DoRafI=F ISym2E= 0.
 FoFCou: FMM=F IPFlag=           0 FMFlag=      100000 FMFlg1=           0
         NFxFlg=           0 DoJE=T BraDBF=F KetDBF=F FulRan=T
         wScrn=  0.000000 ICntrl=     500 IOpCl=  0 I1Cent=           0 NGrid=           0
         NMat0=    1 NMatS0=      1 NMatT0=    0 NMatD0=    1 NMtDS0=    0 NMtDT0=    0
 Symmetry not used in FoFCou.
 Defaulting to unpruned grid for atomic number  78.
 Defaulting to unpruned grid for atomic number  78.
 Defaulting to unpruned grid for atomic number  78.
 Defaulting to unpruned grid for atomic number  78.
 Inv3:  Mode=1 IEnd=     6867507.
 Iteration    1 A*A^-1 deviation from unit magnitude is 7.99D-15 for    290.
 Iteration    1 A*A^-1 deviation from orthogonality  is 2.29D-15 for    599    252.
 Iteration    1 A^-1*A deviation from unit magnitude is 6.88D-15 for    374.
 Iteration    1 A^-1*A deviation from orthogonality  is 4.53D-14 for   1045    324.
 E= -23826.8382687004    
 DIIS: error= 4.46D-01 at cycle   1 NSaved=   1.
 NSaved= 1 IEnMin= 1 EnMin= -23826.8382687004     IErMin= 1 ErrMin= 4.46D-01
 ErrMax= 4.46D-01  0.00D+00 EMaxC= 1.00D-01 BMatC= 3.19D+02 BMatP= 3.19D+02
 IDIUse=3 WtCom= 0.00D+00 WtEn= 1.00D+00
 Coeff-Com:  0.100D+01
 Coeff-En:   0.100D+01
 Coeff:      0.100D+01
 Gap=     0.739 Goal=   None    Shift=    0.000
 GapD=    0.739 DampG=2.000 DampE=0.125 DampFc=0.2500 IDamp=-1.
 Damping current iteration by 2.50D-01
 RMSDP=1.42D-02 MaxDP=1.49D+00              OVMax= 8.46D-01

 Cycle   2  Pass 1  IDiag  1:
 RMSU=  3.51D-03    CP:  1.02D+00
 E= -23828.6081349027     Delta-E=       -1.769866202307 Rises=F Damp=T
 DIIS: error= 3.32D-01 at cycle   2 NSaved=   2.
 NSaved= 2 IEnMin= 2 EnMin= -23828.6081349027     IErMin= 2 ErrMin= 3.32D-01
 ErrMax= 3.32D-01  0.00D+00 EMaxC= 1.00D-01 BMatC= 1.53D+02 BMatP= 3.19D+02
 IDIUse=3 WtCom= 0.00D+00 WtEn= 1.00D+00
 Coeff-Com: -0.193D+01 0.293D+01
 Coeff-En:   0.692D-01 0.931D+00
 Coeff:      0.692D-01 0.931D+00
 Gap=    -0.020 Goal=   None    Shift=    0.000
 RMSDP=4.93D-03 MaxDP=2.48D-01 DE=-1.77D+00 OVMax= 9.90D-01

 Cycle   3  Pass 1  IDiag  1:
 RMSU=  4.87D-03    CP:  1.02D+00  7.79D-01
 E= -23827.8682861485     Delta-E=        0.739848754212 Rises=F Damp=F
 DIIS: error= 9.80D-02 at cycle   3 NSaved=   3.
 NSaved= 3 IEnMin= 2 EnMin= -23828.6081349027     IErMin= 3 ErrMin= 9.80D-02
 ErrMax= 9.80D-02  0.00D+00 EMaxC= 1.00D-01 BMatC= 1.33D+01 BMatP= 1.53D+02
 IDIUse=3 WtCom= 1.98D-02 WtEn= 9.80D-01
 EnCoef did     5 forward-backward iterations
 Coeff-Com:  0.554D+00-0.591D+00 0.104D+01
 Coeff-En:   0.398D+00 0.752D-01 0.526D+00
 Coeff:      0.401D+00 0.620D-01 0.536D+00
 Gap=    -0.016 Goal=   None    Shift=    0.000
 RMSDP=3.16D-02 MaxDP=6.00D+00 DE= 7.40D-01 OVMax= 9.61D-01

 Cycle   4  Pass 1  IDiag  1:
 RMSU=  3.13D-02    CP:  1.03D+00  1.17D+00  8.26D-02
 E= -23822.5045220666     Delta-E=        5.363764081951 Rises=F Damp=F
 DIIS: error= 9.94D-02 at cycle   4 NSaved=   4.
 NSaved= 4 IEnMin= 2 EnMin= -23828.6081349027     IErMin= 3 ErrMin= 9.80D-02
 ErrMax= 9.94D-02  0.00D+00 EMaxC= 1.00D-01 BMatC= 7.42D+00 BMatP= 1.33D+01
 IDIUse=3 WtCom= 6.17D-03 WtEn= 9.94D-01
 EnCoef did   100 forward-backward iterations
 Coeff-Com:  0.689D+00-0.843D+00 0.610D+00 0.543D+00
 Coeff-En:   0.314D+00 0.759D-02 0.464D+00 0.215D+00
 Coeff:      0.316D+00 0.234D-02 0.465D+00 0.217D+00
 Gap=     0.027 Goal=   None    Shift=    0.000
 RMSDP=3.13D-02 MaxDP=6.00D+00 DE= 5.36D+00 OVMax= 8.21D-01

 Cycle   5  Pass 1  IDiag  1:
 RMSU=  1.89D-03    CP:  1.01D+00  2.64D-01  2.40D-01  4.82D-03
 E= -23831.1244461157     Delta-E=       -8.619924049126 Rises=F Damp=F
 DIIS: error= 5.33D-02 at cycle   5 NSaved=   5.
 NSaved= 5 IEnMin= 5 EnMin= -23831.1244461157     IErMin= 5 ErrMin= 5.33D-02
 ErrMax= 5.33D-02  0.00D+00 EMaxC= 1.00D-01 BMatC= 1.37D+00 BMatP= 7.42D+00
 IDIUse=3 WtCom= 4.67D-01 WtEn= 5.33D-01
 EnCoef did     1 forward-backward iterations
 Coeff-Com: -0.195D+00 0.310D+00 0.856D-01 0.238D-01 0.775D+00
 Coeff-En:   0.000D+00 0.000D+00 0.241D+00 0.519D-01 0.708D+00
 Coeff:     -0.909D-01 0.145D+00 0.168D+00 0.388D-01 0.739D+00
 Gap=     0.123 Goal=   None    Shift=    0.000
 RMSDP=4.05D-03 MaxDP=2.60D-01 DE=-8.62D+00 OVMax= 6.14D-01

 Cycle   6  Pass 1  IDiag  1:
 RMSU=  2.94D-03    CP:  1.01D+00  8.97D-01  5.18D-01  7.26D-03  4.76D-01
 E= -23830.1954002513     Delta-E=        0.929045864359 Rises=F Damp=F
 DIIS: error= 4.91D-02 at cycle   6 NSaved=   6.
 NSaved= 6 IEnMin= 5 EnMin= -23831.1244461157     IErMin= 6 ErrMin= 4.91D-02
 ErrMax= 4.91D-02  0.00D+00 EMaxC= 1.00D-01 BMatC= 2.06D+00 BMatP= 1.37D+00
 IDIUse=2 WtCom= 0.00D+00 WtEn= 1.00D+00
 Coeff-En:   0.000D+00 0.000D+00 0.000D+00 0.000D+00 0.608D+00 0.392D+00
 Coeff:      0.000D+00 0.000D+00 0.000D+00 0.000D+00 0.608D+00 0.392D+00
 Gap=    -0.017 Goal=   None    Shift=    0.000
 RMSDP=3.03D-03 MaxDP=2.03D-01 DE= 9.29D-01 OVMax= 7.92D-01

 Cycle   7  Pass 1  IDiag  1:
 RMSU=  1.50D-03    CP:  1.01D+00  5.28D-01  4.90D-01  2.13D-03  6.95D-01
                    CP:  2.39D-01
 E= -23831.8250002366     Delta-E=       -1.629599985219 Rises=F Damp=F
 DIIS: error= 1.74D-02 at cycle   7 NSaved=   7.
 NSaved= 7 IEnMin= 7 EnMin= -23831.8250002366     IErMin= 7 ErrMin= 1.74D-02
 ErrMax= 1.74D-02  0.00D+00 EMaxC= 1.00D-01 BMatC= 3.43D-01 BMatP= 1.37D+00
 IDIUse=3 WtCom= 8.26D-01 WtEn= 1.74D-01
 EnCoef did     5 forward-backward iterations
 Coeff-Com: -0.478D-01 0.683D-01-0.610D-01-0.342D-02 0.353D+00 0.149D+00
 Coeff-Com:  0.542D+00
 Coeff-En:   0.000D+00 0.000D+00 0.000D+00 0.000D+00 0.279D+00 0.340D-01
 Coeff-En:   0.687D+00
 Coeff:     -0.395D-01 0.564D-01-0.504D-01-0.283D-02 0.340D+00 0.129D+00
 Coeff:      0.567D+00
 Gap=     0.103 Goal=   None    Shift=    0.000
 RMSDP=1.52D-03 MaxDP=1.09D-01 DE=-1.63D+00 OVMax= 2.48D-01

 Cycle   8  Pass 1  IDiag  1:
 RMSU=  1.25D-03    CP:  1.01D+00  4.67D-01  4.51D-01  3.12D-03  7.95D-01
                    CP:  2.67D-01  4.85D-01
 E= -23831.9607100363     Delta-E=       -0.135709799721 Rises=F Damp=F
 DIIS: error= 1.75D-02 at cycle   8 NSaved=   8.
 NSaved= 8 IEnMin= 8 EnMin= -23831.9607100363     IErMin= 7 ErrMin= 1.74D-02
 ErrMax= 1.75D-02  0.00D+00 EMaxC= 1.00D-01 BMatC= 1.29D-01 BMatP= 3.43D-01
 IDIUse=3 WtCom= 8.26D-01 WtEn= 1.74D-01
 EnCoef did     5 forward-backward iterations
 Coeff-Com: -0.467D-01 0.640D-01-0.530D-01 0.246D-02 0.186D+00 0.305D-01
 Coeff-Com:  0.442D+00 0.375D+00
 Coeff-En:   0.000D+00 0.000D+00 0.000D+00 0.000D+00 0.532D-01 0.000D+00
 Coeff-En:   0.347D+00 0.600D+00
 Coeff:     -0.386D-01 0.529D-01-0.438D-01 0.203D-02 0.163D+00 0.252D-01
 Coeff:      0.425D+00 0.414D+00
 Gap=     0.066 Goal=   None    Shift=    0.000
 RMSDP=9.26D-04 MaxDP=6.69D-02 DE=-1.36D-01 OVMax= 1.49D-01

 Cycle   9  Pass 1  IDiag  1:
 RMSU=  5.09D-04    CP:  1.01D+00  4.71D-01  4.29D-01  3.04D-03  8.51D-01
                    CP:  2.33D-01  6.17D-01  4.22D-01
 E= -23832.0476543568     Delta-E=       -0.086944320567 Rises=F Damp=F
 DIIS: error= 1.59D-02 at cycle   9 NSaved=   9.
 NSaved= 9 IEnMin= 9 EnMin= -23832.0476543568     IErMin= 9 ErrMin= 1.59D-02
 ErrMax= 1.59D-02  0.00D+00 EMaxC= 1.00D-01 BMatC= 4.78D-02 BMatP= 1.29D-01
 IDIUse=3 WtCom= 8.41D-01 WtEn= 1.59D-01
 Coeff-Com: -0.339D-01 0.461D-01-0.333D-01 0.210D-02 0.102D+00 0.850D-02
 Coeff-Com:  0.274D+00 0.339D+00 0.295D+00
 Coeff-En:   0.000D+00 0.000D+00 0.000D+00 0.000D+00 0.000D+00 0.000D+00
 Coeff-En:   0.000D+00 0.264D+00 0.736D+00
 Coeff:     -0.285D-01 0.388D-01-0.280D-01 0.177D-02 0.856D-01 0.714D-02
 Coeff:      0.231D+00 0.327D+00 0.365D+00
 Gap=     0.062 Goal=   None    Shift=    0.000
 RMSDP=4.29D-04 MaxDP=1.98D-02 DE=-8.69D-02 OVMax= 1.36D-01

 Cycle  10  Pass 1  IDiag  1:
 RMSU=  3.04D-04    CP:  1.01D+00  4.80D-01  4.30D-01  3.01D-03  8.46D-01
                    CP:  2.42D-01  6.39D-01  4.38D-01  4.15D-01
 E= -23832.0701904922     Delta-E=       -0.022536135377 Rises=F Damp=F
 DIIS: error= 8.91D-03 at cycle  10 NSaved=  10.
 NSaved=10 IEnMin=10 EnMin= -23832.0701904922     IErMin=10 ErrMin= 8.91D-03
 ErrMax= 8.91D-03  0.00D+00 EMaxC= 1.00D-01 BMatC= 1.83D-02 BMatP= 4.78D-02
 IDIUse=3 WtCom= 9.11D-01 WtEn= 8.91D-02
 Coeff-Com: -0.150D-01 0.202D-01-0.132D-01-0.409D-04 0.375D-01 0.335D-02
 Coeff-Com:  0.819D-01 0.167D+00 0.339D+00 0.379D+00
 Coeff-En:   0.000D+00 0.000D+00 0.000D+00 0.000D+00 0.000D+00 0.000D+00
 Coeff-En:   0.000D+00 0.000D+00 0.339D+00 0.661D+00
 Coeff:     -0.136D-01 0.184D-01-0.120D-01-0.372D-04 0.342D-01 0.305D-02
 Coeff:      0.746D-01 0.152D+00 0.339D+00 0.404D+00
 Gap=     0.066 Goal=   None    Shift=    0.000
 RMSDP=2.63D-04 MaxDP=1.82D-02 DE=-2.25D-02 OVMax= 5.39D-02

 Cycle  11  Pass 1  IDiag  1:
 RMSU=  1.42D-04    CP:  1.01D+00  4.70D-01  4.29D-01  3.12D-03  8.49D-01
                    CP:  2.39D-01  6.11D-01  5.18D-01  5.14D-01  4.02D-01
 E= -23832.0833365044     Delta-E=       -0.013146012185 Rises=F Damp=F
 DIIS: error= 1.19D-03 at cycle  11 NSaved=  11.
 NSaved=11 IEnMin=11 EnMin= -23832.0833365044     IErMin=11 ErrMin= 1.19D-03
 ErrMax= 1.19D-03  0.00D+00 EMaxC= 1.00D-01 BMatC= 1.41D-03 BMatP= 1.83D-02
 IDIUse=3 WtCom= 9.88D-01 WtEn= 1.19D-02
 Coeff-Com: -0.360D-02 0.485D-02-0.208D-02-0.558D-03 0.581D-02 0.213D-02
 Coeff-Com: -0.307D-02 0.418D-01 0.188D+00 0.300D+00 0.467D+00
 Coeff-En:   0.000D+00 0.000D+00 0.000D+00 0.000D+00 0.000D+00 0.000D+00
 Coeff-En:   0.000D+00 0.000D+00 0.000D+00 0.852D-01 0.915D+00
 Coeff:     -0.355D-02 0.479D-02-0.206D-02-0.552D-03 0.574D-02 0.210D-02
 Coeff:     -0.303D-02 0.413D-01 0.186D+00 0.297D+00 0.472D+00
 Gap=     0.064 Goal=   None    Shift=    0.000
 RMSDP=1.02D-04 MaxDP=8.28D-03 DE=-1.31D-02 OVMax= 1.66D-02

 Cycle  12  Pass 1  IDiag  1:
 RMSU=  3.22D-05    CP:  1.01D+00  4.72D-01  4.28D-01  3.15D-03  8.53D-01
                    CP:  2.40D-01  6.14D-01  4.86D-01  5.62D-01  5.24D-01
                    CP:  4.74D-01
 E= -23832.0845385604     Delta-E=       -0.001202055959 Rises=F Damp=F
 DIIS: error= 2.47D-04 at cycle  12 NSaved=  12.
 NSaved=12 IEnMin=12 EnMin= -23832.0845385604     IErMin=12 ErrMin= 2.47D-04
 ErrMax= 2.47D-04  0.00D+00 EMaxC= 1.00D-01 BMatC= 6.10D-05 BMatP= 1.41D-03
 IDIUse=3 WtCom= 9.98D-01 WtEn= 2.47D-03
 Coeff-Com: -0.490D-03 0.650D-03 0.750D-04 0.615D-04-0.784D-03 0.302D-03
 Coeff-Com: -0.606D-02 0.143D-01 0.727D-01 0.116D+00 0.242D+00 0.561D+00
 Coeff-En:   0.000D+00 0.000D+00 0.000D+00 0.000D+00 0.000D+00 0.000D+00
 Coeff-En:   0.000D+00 0.000D+00 0.000D+00 0.000D+00 0.000D+00 0.100D+01
 Coeff:     -0.488D-03 0.648D-03 0.748D-04 0.613D-04-0.782D-03 0.301D-03
 Coeff:     -0.604D-02 0.142D-01 0.725D-01 0.116D+00 0.242D+00 0.562D+00
 Gap=     0.062 Goal=   None    Shift=    0.000
 RMSDP=2.54D-05 MaxDP=1.91D-03 DE=-1.20D-03 OVMax= 3.89D-03

 Cycle  13  Pass 1  IDiag  1:
 RMSU=  1.50D-05    CP:  1.01D+00  4.74D-01  4.28D-01  3.17D-03  8.52D-01
                    CP:  2.42D-01  6.12D-01  4.96D-01  5.66D-01  5.18D-01
                    CP:  5.34D-01  7.27D-01
 E= -23832.0845743347     Delta-E=       -0.000035774327 Rises=F Damp=F
 DIIS: error= 2.15D-04 at cycle  13 NSaved=  13.
 NSaved=13 IEnMin=13 EnMin= -23832.0845743347     IErMin=13 ErrMin= 2.15D-04
 ErrMax= 2.15D-04  0.00D+00 EMaxC= 1.00D-01 BMatC= 2.91D-05 BMatP= 6.10D-05
 IDIUse=3 WtCom= 9.98D-01 WtEn= 2.15D-03
 Coeff-Com: -0.167D-03 0.218D-03 0.234D-04-0.887D-04-0.236D-03 0.143D-03
 Coeff-Com: -0.212D-02 0.580D-02 0.252D-01 0.386D-01 0.106D+00 0.417D+00
 Coeff-Com:  0.409D+00
 Coeff-En:   0.000D+00 0.000D+00 0.000D+00 0.000D+00 0.000D+00 0.000D+00
 Coeff-En:   0.000D+00 0.000D+00 0.000D+00 0.000D+00 0.000D+00 0.308D+00
 Coeff-En:   0.692D+00
 Coeff:     -0.167D-03 0.217D-03 0.234D-04-0.885D-04-0.235D-03 0.142D-03
 Coeff:     -0.211D-02 0.579D-02 0.252D-01 0.385D-01 0.106D+00 0.417D+00
 Coeff:      0.410D+00
 Gap=     0.062 Goal=   None    Shift=    0.000
 RMSDP=1.02D-05 MaxDP=7.86D-04 DE=-3.58D-05 OVMax= 2.42D-03

 Cycle  14  Pass 1  IDiag  1:
 RMSU=  5.37D-06    CP:  1.01D+00  4.73D-01  4.28D-01  3.15D-03  8.51D-01
                    CP:  2.41D-01  6.13D-01  4.96D-01  5.64D-01  5.10D-01
                    CP:  5.11D-01  7.74D-01  5.65D-01
 E= -23832.0845942771     Delta-E=       -0.000019942363 Rises=F Damp=F
 DIIS: error= 7.00D-05 at cycle  14 NSaved=  14.
 NSaved=14 IEnMin=14 EnMin= -23832.0845942771     IErMin=14 ErrMin= 7.00D-05
 ErrMax= 7.00D-05  0.00D+00 EMaxC= 1.00D-01 BMatC= 2.96D-06 BMatP= 2.91D-05
 IDIUse=1 WtCom= 1.00D+00 WtEn= 0.00D+00
 Coeff-Com:  0.616D-04-0.810D-04 0.842D-04-0.163D-04-0.437D-04-0.548D-04
 Coeff-Com: -0.852D-03 0.105D-02 0.664D-02 0.109D-01 0.399D-01 0.192D+00
 Coeff-Com:  0.273D+00 0.477D+00
 Coeff:      0.616D-04-0.810D-04 0.842D-04-0.163D-04-0.437D-04-0.548D-04
 Coeff:     -0.852D-03 0.105D-02 0.664D-02 0.109D-01 0.399D-01 0.192D+00
 Coeff:      0.273D+00 0.477D+00
 Gap=     0.062 Goal=   None    Shift=    0.000
 RMSDP=4.97D-06 MaxDP=2.87D-04 DE=-1.99D-05 OVMax= 1.05D-03

 Cycle  15  Pass 1  IDiag  1:
 RMSU=  2.38D-06    CP:  1.01D+00  4.73D-01  4.28D-01  3.16D-03  8.52D-01
                    CP:  2.41D-01  6.13D-01  4.95D-01  5.64D-01  5.12D-01
                    CP:  5.23D-01  7.78D-01  4.89D-01  4.51D-01
 E= -23832.0845967734     Delta-E=       -0.000002496348 Rises=F Damp=F
 DIIS: error= 1.16D-05 at cycle  15 NSaved=  15.
 NSaved=15 IEnMin=15 EnMin= -23832.0845967734     IErMin=15 ErrMin= 1.16D-05
 ErrMax= 1.16D-05  0.00D+00 EMaxC= 1.00D-01 BMatC= 2.36D-07 BMatP= 2.96D-06
 IDIUse=1 WtCom= 1.00D+00 WtEn= 0.00D+00
 Coeff-Com:  0.582D-04-0.775D-04 0.362D-04-0.208D-04 0.513D-04-0.321D-04
 Coeff-Com: -0.288D-04 0.220D-03 0.174D-02 0.309D-02 0.135D-01 0.717D-01
 Coeff-Com:  0.117D+00 0.283D+00 0.509D+00
 Coeff:      0.582D-04-0.775D-04 0.362D-04-0.208D-04 0.513D-04-0.321D-04
 Coeff:     -0.288D-04 0.220D-03 0.174D-02 0.309D-02 0.135D-01 0.717D-01
 Coeff:      0.117D+00 0.283D+00 0.509D+00
 Gap=     0.062 Goal=   None    Shift=    0.000
 RMSDP=1.30D-06 MaxDP=6.34D-05 DE=-2.50D-06 OVMax= 2.49D-04

 Cycle  16  Pass 1  IDiag  1:
 RMSU=  4.08D-07    CP:  1.01D+00  4.73D-01  4.28D-01  3.16D-03  8.52D-01
                    CP:  2.41D-01  6.13D-01  4.95D-01  5.63D-01  5.12D-01
                    CP:  5.22D-01  7.70D-01  5.16D-01  5.71D-01  6.89D-01
 E= -23832.0845970051     Delta-E=       -0.000000231728 Rises=F Damp=F
 DIIS: error= 4.16D-06 at cycle  16 NSaved=  16.
 NSaved=16 IEnMin=16 EnMin= -23832.0845970051     IErMin=16 ErrMin= 4.16D-06
 ErrMax= 4.16D-06  0.00D+00 EMaxC= 1.00D-01 BMatC= 1.30D-08 BMatP= 2.36D-07
 IDIUse=1 WtCom= 1.00D+00 WtEn= 0.00D+00
 Coeff-Com:  0.242D-04-0.325D-04 0.802D-05-0.892D-05 0.321D-04-0.151D-04
 Coeff-Com:  0.155D-03 0.643D-04 0.340D-03 0.607D-03 0.216D-02 0.116D-01
 Coeff-Com:  0.227D-01 0.785D-01 0.198D+00 0.686D+00
 Coeff:      0.242D-04-0.325D-04 0.802D-05-0.892D-05 0.321D-04-0.151D-04
 Coeff:      0.155D-03 0.643D-04 0.340D-03 0.607D-03 0.216D-02 0.116D-01
 Coeff:      0.227D-01 0.785D-01 0.198D+00 0.686D+00
 Gap=     0.062 Goal=   None    Shift=    0.000
 RMSDP=3.91D-07 MaxDP=1.96D-05 DE=-2.32D-07 OVMax= 6.50D-05

 Cycle  17  Pass 1  IDiag  1:
 RMSU=  2.46D-07    CP:  1.01D+00  4.73D-01  4.28D-01  3.15D-03  8.51D-01
                    CP:  2.41D-01  6.13D-01  4.95D-01  5.63D-01  5.12D-01
                    CP:  5.21D-01  7.69D-01  5.22D-01  5.72D-01  6.57D-01
                    CP:  7.50D-01
 E= -23832.0845970149     Delta-E=       -0.000000009761 Rises=F Damp=F
 DIIS: error= 1.29D-06 at cycle  17 NSaved=  17.
 NSaved=17 IEnMin=17 EnMin= -23832.0845970149     IErMin=17 ErrMin= 1.29D-06
 ErrMax= 1.29D-06  0.00D+00 EMaxC= 1.00D-01 BMatC= 1.89D-09 BMatP= 1.30D-08
 IDIUse=1 WtCom= 1.00D+00 WtEn= 0.00D+00
 Coeff-Com:  0.607D-05-0.809D-05 0.163D-05-0.928D-06 0.864D-05-0.685D-05
 Coeff-Com:  0.636D-04 0.328D-04 0.572D-04 0.631D-04-0.248D-04-0.762D-03
 Coeff-Com: -0.745D-03 0.196D-02 0.253D-01 0.322D+00 0.652D+00
 Coeff:      0.607D-05-0.809D-05 0.163D-05-0.928D-06 0.864D-05-0.685D-05
 Coeff:      0.636D-04 0.328D-04 0.572D-04 0.631D-04-0.248D-04-0.762D-03
 Coeff:     -0.745D-03 0.196D-02 0.253D-01 0.322D+00 0.652D+00
 Gap=     0.062 Goal=   None    Shift=    0.000
 RMSDP=1.72D-07 MaxDP=1.00D-05 DE=-9.76D-09 OVMax= 8.94D-06

 Cycle  18  Pass 1  IDiag  1:
 RMSU=  7.25D-08    CP:  1.01D+00  4.73D-01  4.28D-01  3.15D-03  8.51D-01
                    CP:  2.41D-01  6.13D-01  4.95D-01  5.63D-01  5.12D-01
                    CP:  5.21D-01  7.69D-01  5.17D-01  5.72D-01  6.68D-01
                    CP:  8.53D-01  6.84D-01
 E= -23832.0845970153     Delta-E=       -0.000000000367 Rises=F Damp=F
 DIIS: error= 2.49D-07 at cycle  18 NSaved=  18.
 NSaved=18 IEnMin=18 EnMin= -23832.0845970153     IErMin=18 ErrMin= 2.49D-07
 ErrMax= 2.49D-07  0.00D+00 EMaxC= 1.00D-01 BMatC= 1.47D-10 BMatP= 1.89D-09
 IDIUse=1 WtCom= 1.00D+00 WtEn= 0.00D+00
 Coeff-Com:  0.211D-06-0.257D-06-0.386D-06-0.644D-07 0.228D-05-0.984D-06
 Coeff-Com:  0.444D-05 0.757D-06 0.305D-04 0.516D-04 0.148D-03 0.310D-03
 Coeff-Com:  0.195D-03-0.737D-03 0.554D-02 0.690D-01 0.229D+00 0.697D+00
 Coeff:      0.211D-06-0.257D-06-0.386D-06-0.644D-07 0.228D-05-0.984D-06
 Coeff:      0.444D-05 0.757D-06 0.305D-04 0.516D-04 0.148D-03 0.310D-03
 Coeff:      0.195D-03-0.737D-03 0.554D-02 0.690D-01 0.229D+00 0.697D+00
 Gap=     0.062 Goal=   None    Shift=    0.000
 RMSDP=5.14D-08 MaxDP=3.27D-06 DE=-3.67D-10 OVMax= 8.44D-06

 Cycle  19  Pass 1  IDiag  1:
 RMSU=  2.64D-08    CP:  1.01D+00  4.73D-01  4.28D-01  3.15D-03  8.51D-01
                    CP:  2.41D-01  6.13D-01  4.95D-01  5.63D-01  5.12D-01
                    CP:  5.21D-01  7.69D-01  5.18D-01  5.69D-01  6.69D-01
                    CP:  8.35D-01  7.51D-01  6.26D-01
 E= -23832.0845970162     Delta-E=       -0.000000000950 Rises=F Damp=F
 DIIS: error= 2.41D-07 at cycle  19 NSaved=  19.
 NSaved=19 IEnMin=19 EnMin= -23832.0845970162     IErMin=19 ErrMin= 2.41D-07
 ErrMax= 2.41D-07  0.00D+00 EMaxC= 1.00D-01 BMatC= 6.75D-11 BMatP= 1.47D-10
 IDIUse=1 WtCom= 1.00D+00 WtEn= 0.00D+00
 Coeff-Com: -0.138D-06 0.206D-06-0.330D-06-0.397D-07 0.135D-05-0.193D-06
 Coeff-Com: -0.213D-05-0.274D-05 0.170D-04 0.305D-04 0.988D-04 0.270D-03
 Coeff-Com:  0.149D-03-0.683D-03 0.173D-02 0.281D-01 0.114D+00 0.488D+00
 Coeff-Com:  0.369D+00
 Coeff:     -0.138D-06 0.206D-06-0.330D-06-0.397D-07 0.135D-05-0.193D-06
 Coeff:     -0.213D-05-0.274D-05 0.170D-04 0.305D-04 0.988D-04 0.270D-03
 Coeff:      0.149D-03-0.683D-03 0.173D-02 0.281D-01 0.114D+00 0.488D+00
 Coeff:      0.369D+00
 Gap=     0.062 Goal=   None    Shift=    0.000
 RMSDP=2.13D-08 MaxDP=2.13D-06 DE=-9.50D-10 OVMax= 5.11D-06

 Cycle  20  Pass 1  IDiag  1:
 RMSU=  8.56D-09    CP:  1.01D+00  4.73D-01  4.28D-01  3.15D-03  8.51D-01
                    CP:  2.41D-01  6.13D-01  4.95D-01  5.63D-01  5.12D-01
                    CP:  5.21D-01  7.69D-01  5.18D-01  5.69D-01  6.69D-01
                    CP:  8.36D-01  7.38D-01  7.16D-01  3.31D-01
 E= -23832.0845970160     Delta-E=        0.000000000233 Rises=F Damp=F
 DIIS: error= 6.29D-08 at cycle  20 NSaved=  20.
 NSaved=20 IEnMin=19 EnMin= -23832.0845970162     IErMin=20 ErrMin= 6.29D-08
 ErrMax= 6.29D-08  0.00D+00 EMaxC= 1.00D-01 BMatC= 5.00D-12 BMatP= 6.75D-11
 IDIUse=1 WtCom= 1.00D+00 WtEn= 0.00D+00
 Coeff-Com: -0.357D-07 0.654D-07-0.109D-06-0.327D-07 0.796D-06-0.837D-07
 Coeff-Com: -0.184D-05-0.184D-05 0.449D-05 0.719D-05 0.231D-04 0.562D-04
 Coeff-Com: -0.662D-04-0.560D-03-0.316D-03 0.103D-01 0.421D-01 0.210D+00
 Coeff-Com:  0.215D+00 0.523D+00
 Coeff:     -0.357D-07 0.654D-07-0.109D-06-0.327D-07 0.796D-06-0.837D-07
 Coeff:     -0.184D-05-0.184D-05 0.449D-05 0.719D-05 0.231D-04 0.562D-04
 Coeff:     -0.662D-04-0.560D-03-0.316D-03 0.103D-01 0.421D-01 0.210D+00
 Coeff:      0.215D+00 0.523D+00
 Gap=     0.062 Goal=   None    Shift=    0.000
 RMSDP=5.91D-09 MaxDP=3.40D-07 DE= 2.33D-10 OVMax= 8.56D-07

 Error on total polarization charges =  0.03515
 SCF Done:  E(RPBE-PBE) =  -23832.0845970     A.U. after   20 cycles
            NFock= 20  Conv=0.59D-08     -V/T= 2.0137
 KE= 2.350895206764D+04 PE=-6.387309627113D+04 EE= 1.289977493594D+04
 Leave Link  502 at Sat Oct 30 02:16:26 2021, MaxMem=  2013265920 cpu:      2127.7
 (Enter /scr/programas/g09/l801.exe)
 Range of M.O.s used for correlation:     1   460
 NBasis=   460 NAE=   112 NBE=   112 NFC=     0 NFV=     0
 NROrb=    460 NOA=   112 NOB=   112 NVA=   348 NVB=   348

 **** Warning!!: The largest alpha MO coefficient is  0.26375418D+02


 **** Warning!!: The smallest alpha delta epsilon is  0.62460883D-01

 Leave Link  801 at Sat Oct 30 02:16:26 2021, MaxMem=  2013265920 cpu:         0.1
 (Enter /scr/programas/g09/l1002.exe)
 Minotr:  Closed shell wavefunction.
 NEqPCM:  Using equilibrium solvation (IEInf=0, Eps=  78.3553, EpsInf=   1.7778)
          Direct CPHF calculation.
          Differentiating once with respect to magnetic field using GIAOs.
          Electric field/nuclear overlap derivatives assumed to be zero.
          Requested convergence is 1.0D-08 RMS, and 1.0D-07 maximum.
          Secondary convergence is 1.0D-12 RMS, and 1.0D-12 maximum.
          NewPWx=T KeepS1=F KeepF1=F KeepIn=T MapXYZ=F SortEE=F KeepMc=T.
          MDV=    2013265384 using IRadAn=       2.
 Defaulting to unpruned grid for atomic number  78.
 Generate precomputed XC quadrature information.
          Solving linear equations simultaneously, MaxMat=       0.
 FoFJK:  IHMeth= 1 ICntrl=    6127 DoSepK=F KAlg= 0 I1Cent=   0 FoldK=F
 IRaf=         1 NMat=   1 IRICut=       1 DoRegI=T DoRafI=F ISym2E= 0.
 Defaulting to unpruned grid for atomic number  78.
 Defaulting to unpruned grid for atomic number  78.
 Defaulting to unpruned grid for atomic number  78.
 Defaulting to unpruned grid for atomic number  78.
          There are     3 degrees of freedom in the 1st order CPHF.  IDoFFX=0 NUNeed=     3.
      3 vectors produced by pass  0 Test12= 1.30D-12 3.33D-08 XBig12= 3.03D+01 2.70D+00.
 AX will form     3 AO Fock derivatives at one time.
 InvSVY:  IOpt=1 It=  1 EMax= 0.00D+00
 Solved reduced A of dimension     3 with     3 vectors.
 Calculating GIAO nuclear magnetic shielding tensors.
 SCF GIAO Magnetic shielding tensor (ppm):
      1  Pt   Isotropic =  -404.0807   Anisotropy =   701.6001
   XX=    41.3450   YX=   136.6369   ZX=   -10.4581
   XY=   137.6906   YY=  -921.3668   ZY=  -244.6799
   XZ=    19.3469   YZ=  -283.0292   ZZ=  -332.2205
   Eigenvalues: -1037.8829  -238.0120    63.6527
      2  Cl   Isotropic =   550.3078   Anisotropy =   792.9394
   XX=   407.2236   YX=   -43.7371   ZX=    62.2616
   XY=  -110.7276   YY=  1069.1254   ZY=     9.1242
   XZ=   127.5857   YZ=   -44.8205   ZZ=   174.5743
   Eigenvalues:   140.6679   431.3213  1078.9340
      3  Br   Isotropic =  1522.3102   Anisotropy =  2165.4266
   XX=  1097.0665   YX=  -291.4070   ZX=  -145.4448
   XY=  -126.4716   YY=  2938.2640   ZY=   -60.1672
   XZ=  -250.7144   YZ=  -187.9674   ZZ=   531.6000
   Eigenvalues:   455.6945  1145.3080  2965.9279
      4  N    Isotropic =  -182.1489   Anisotropy =   254.3238
   XX=  -226.4743   YX=    -6.9737   ZX=    19.8221
   XY=    -8.1670   YY=  -164.8432   ZY=  -146.5731
   XZ=    18.8782   YZ=  -144.5974   ZZ=  -155.1294
   Eigenvalues:  -306.4676  -227.3795   -12.5997
      5  O    Isotropic =  -382.5141   Anisotropy =   424.5521
   XX=  -388.5126   YX=    94.7883   ZX=   123.4713
   XY=   -60.3701   YY=  -378.7644   ZY=  -271.3696
   XZ=   -25.1540   YZ=  -285.1387   ZZ=  -380.2651
   Eigenvalues:  -665.7500  -382.3129   -99.4794
      6  O    Isotropic =  -378.8198   Anisotropy =   425.4813
   XX=  -381.1677   YX=   -91.6741   ZX=   -55.3390
   XY=    61.1841   YY=  -383.6685   ZY=  -291.8388
   XZ=    92.8331   YZ=  -268.9438   ZZ=  -371.6232
   Eigenvalues:  -658.1197  -383.1742   -95.1656
      7  Cl   Isotropic =   651.4031   Anisotropy =   633.3824
   XX=   594.6019   YX=    97.4046   ZX=    29.9695
   XY=   149.0346   YY=   290.1740   ZY=    48.1468
   XZ=   -60.0769   YZ=    65.8119   ZZ=  1069.4334
   Eigenvalues:   242.3791   638.1721  1073.6581
      8  Cl   Isotropic =   648.5000   Anisotropy =   631.8200
   XX=   634.1940   YX=   -24.7273   ZX=   -33.2069
   XY=   -71.3190   YY=   243.7237   ZY=    -3.6772
   XZ=    38.9754   YZ=    87.5776   ZZ=  1067.5823
   Eigenvalues:   235.7841   640.0025  1069.7133
      9  Br   Isotropic =  2191.4301   Anisotropy =  1153.8015
   XX=  2952.8455   YX=   120.0218   ZX=    17.2852
   XY=    69.7283   YY=  1787.3032   ZY=    21.9435
   XZ=     1.7604   YZ=    22.7047   ZZ=  1834.1415
   Eigenvalues:  1772.1701  1841.4891  2960.6310
 End of Minotr F.D. properties file   721 does not exist.
 End of Minotr F.D. properties file   722 does not exist.
 End of Minotr F.D. properties file   788 does not exist.
 Leave Link 1002 at Sat Oct 30 02:22:05 2021, MaxMem=  2013265920 cpu:      1347.2
 (Enter /scr/programas/g09/l601.exe)
 Copying SCF densities to generalized density rwf, IOpCl= 0 IROHF=0.

 **********************************************************************

            Population analysis using the SCF density.

 **********************************************************************

 Orbital symmetries:
       Occupied  (A) (A) (A) (A) (A) (A) (A) (A) (A) (A) (A) (A)
                 (A) (A) (A) (A) (A) (A) (A) (A) (A) (A) (A) (A)
                 (A) (A) (A) (A) (A) (A) (A) (A) (A) (A) (A) (A)
                 (A) (A) (A) (A) (A) (A) (A) (A) (A) (A) (A) (A)
                 (A) (A) (A) (A) (A) (A) (A) (A) (A) (A) (A) (A)
                 (A) (A) (A) (A) (A) (A) (A) (A) (A) (A) (A) (A)
                 (A) (A) (A) (A) (A) (A) (A) (A) (A) (A) (A) (A)
                 (A) (A) (A) (A) (A) (A) (A) (A) (A) (A) (A) (A)
                 (A) (A) (A) (A) (A) (A) (A) (A) (A) (A) (A) (A)
                 (A) (A) (A) (A)
       Virtual   (A) (A) (A) (A) (A) (A) (A) (A) (A) (A) (A) (A)
                 (A) (A) (A) (A) (A) (A) (A) (A) (A) (A) (A) (A)
                 (A) (A) (A) (A) (A) (A) (A) (A) (A) (A) (A) (A)
                 (A) (A) (A) (A) (A) (A) (A) (A) (A) (A) (A) (A)
                 (A) (A) (A) (A) (A) (A) (A) (A) (A) (A) (A) (A)
                 (A) (A) (A) (A) (A) (A) (A) (A) (A) (A) (A) (A)
                 (A) (A) (A) (A) (A) (A) (A) (A) (A) (A) (A) (A)
                 (A) (A) (A) (A) (A) (A) (A) (A) (A) (A) (A) (A)
                 (A) (A) (A) (A) (A) (A) (A) (A) (A) (A) (A) (A)
                 (A) (A) (A) (A) (A) (A) (A) (A) (A) (A) (A) (A)
                 (A) (A) (A) (A) (A) (A) (A) (A) (A) (A) (A) (A)
                 (A) (A) (A) (A) (A) (A) (A) (A) (A) (A) (A) (A)
                 (A) (A) (A) (A) (A) (A) (A) (A) (A) (A) (A) (A)
                 (A) (A) (A) (A) (A) (A) (A) (A) (A) (A) (A) (A)
                 (A) (A) (A) (A) (A) (A) (A) (A) (A) (A) (A) (A)
                 (A) (A) (A) (A) (A) (A) (A) (A) (A) (A) (A) (A)
                 (A) (A) (A) (A) (A) (A) (A) (A) (A) (A) (A) (A)
                 (A) (A) (A) (A) (A) (A) (A) (A) (A) (A) (A) (A)
                 (A) (A) (A) (A) (A) (A) (A) (A) (A) (A) (A) (A)
                 (A) (A) (A) (A) (A) (A) (A) (A) (A) (A) (A) (A)
                 (A) (A) (A) (A) (A) (A) (A) (A) (A) (A) (A) (A)
                 (A) (A) (A) (A) (A) (A) (A) (A) (A) (A) (A) (A)
                 (A) (A) (A) (A) (A) (A) (A) (A) (A) (A) (A) (A)
                 (A) (A) (A) (A) (A) (A) (A) (A) (A) (A) (A) (A)
                 (A) (A) (A) (A) (A) (A) (A) (A) (A) (A) (A) (A)
                 (A) (A) (A) (A) (A) (A) (A) (A) (A) (A) (A) (A)
                 (A) (A) (A) (A) (A) (A) (A) (A) (A) (A) (A) (A)
                 (A) (A) (A) (A) (A) (A) (A) (A) (A) (A) (A) (A)
                 (A) (A) (A) (A) (A) (A) (A) (A) (A) (A) (A) (A)
 The electronic state is 1-A.
 Alpha  occ. eigenvalues -- **********-478.58824-478.57502-427.60792-414.93705
 Alpha  occ. eigenvalues -- -414.93694-414.93683-100.54065-100.54045-100.53879
 Alpha  occ. eigenvalues --  -99.98801 -92.14472 -92.14455 -92.14442 -79.10418
 Alpha  occ. eigenvalues --  -79.10383 -79.10243 -79.10239 -79.10227 -61.50648
 Alpha  occ. eigenvalues --  -61.49335 -55.69153 -55.68829 -55.68825 -55.67797
 Alpha  occ. eigenvalues --  -55.67534 -55.67533 -20.90246 -18.79763 -18.79742
 Alpha  occ. eigenvalues --  -17.46715 -17.46681 -17.46651 -14.19272 -11.65219
 Alpha  occ. eigenvalues --  -11.65126 -11.64612 -11.64584 -11.64567  -9.11886
 Alpha  occ. eigenvalues --   -9.11865  -9.11701  -8.33490  -8.32177  -6.95856
 Alpha  occ. eigenvalues --   -6.95833  -6.95655  -6.94991  -6.94981  -6.94972
 Alpha  occ. eigenvalues --   -6.94961  -6.94814  -6.94804  -6.24421  -6.23483
 Alpha  occ. eigenvalues --   -6.23473  -6.22989  -6.22226  -6.22224  -3.19997
 Alpha  occ. eigenvalues --   -3.19964  -3.19922  -3.19669  -3.19632  -3.19609
 Alpha  occ. eigenvalues --   -3.19231  -2.92884  -2.45336  -2.45100  -2.45093
 Alpha  occ. eigenvalues --   -2.44403  -2.44403  -2.43935  -2.43742  -2.43741
 Alpha  occ. eigenvalues --   -2.43180  -2.43179  -1.86864  -1.86757  -1.86697
 Alpha  occ. eigenvalues --   -1.14032  -0.97799  -0.70036  -0.68923  -0.68845
 Alpha  occ. eigenvalues --   -0.66173  -0.64897  -0.58447  -0.48697  -0.47815
 Alpha  occ. eigenvalues --   -0.46561  -0.38148  -0.36117  -0.34934  -0.34100
 Alpha  occ. eigenvalues --   -0.33494  -0.30962  -0.29147  -0.29033  -0.28699
 Alpha  occ. eigenvalues --   -0.25597  -0.25044  -0.24300  -0.24018  -0.23946
 Alpha  occ. eigenvalues --   -0.23228  -0.23205  -0.22933  -0.22532  -0.22011
 Alpha  occ. eigenvalues --   -0.21786  -0.21511
 Alpha virt. eigenvalues --   -0.15265  -0.13836  -0.09625  -0.00729   0.00758
 Alpha virt. eigenvalues --    0.01088   0.01388   0.03130   0.03318   0.03380
 Alpha virt. eigenvalues --    0.03721   0.03776   0.06016   0.06198   0.06367
 Alpha virt. eigenvalues --    0.06984   0.07368   0.07603   0.08417   0.09748
 Alpha virt. eigenvalues --    0.09907   0.10416   0.10695   0.11090   0.11516
 Alpha virt. eigenvalues --    0.11574   0.11970   0.12592   0.16324   0.16725
 Alpha virt. eigenvalues --    0.16835   0.18214   0.18446   0.18595   0.18803
 Alpha virt. eigenvalues --    0.19181   0.19591   0.20799   0.21681   0.22403
 Alpha virt. eigenvalues --    0.23463   0.24152   0.24773   0.25116   0.26170
 Alpha virt. eigenvalues --    0.26920   0.27329   0.27975   0.29853   0.30061
 Alpha virt. eigenvalues --    0.30471   0.31022   0.32174   0.32993   0.33392
 Alpha virt. eigenvalues --    0.34381   0.34732   0.35731   0.36133   0.36373
 Alpha virt. eigenvalues --    0.36739   0.36902   0.37149   0.37466   0.39491
 Alpha virt. eigenvalues --    0.40187   0.42433   0.45220   0.46843   0.48093
 Alpha virt. eigenvalues --    0.49047   0.50410   0.50728   0.52987   0.54327
 Alpha virt. eigenvalues --    0.56166   0.57270   0.58047   0.59968   0.60835
 Alpha virt. eigenvalues --    0.61057   0.62785   0.64267   0.66774   0.67015
 Alpha virt. eigenvalues --    0.68092   0.69581   0.70262   0.71378   0.72239
 Alpha virt. eigenvalues --    0.74478   0.75177   0.76229   0.77123   0.77308
 Alpha virt. eigenvalues --    0.78832   0.79871   0.81956   0.82884   0.83558
 Alpha virt. eigenvalues --    0.85712   0.87317   0.88936   0.89571   0.91007
 Alpha virt. eigenvalues --    0.91607   0.92853   0.93635   0.94115   0.95725
 Alpha virt. eigenvalues --    0.96436   0.97137   0.99262   1.01063   1.01812
 Alpha virt. eigenvalues --    1.02896   1.03120   1.03478   1.03900   1.04548
 Alpha virt. eigenvalues --    1.04857   1.06148   1.07042   1.08118   1.09442
 Alpha virt. eigenvalues --    1.10118   1.11258   1.12024   1.12984   1.13092
 Alpha virt. eigenvalues --    1.14134   1.15377   1.16797   1.17439   1.18778
 Alpha virt. eigenvalues --    1.19393   1.19921   1.21450   1.22614   1.24212
 Alpha virt. eigenvalues --    1.24307   1.24748   1.25529   1.26638   1.28548
 Alpha virt. eigenvalues --    1.29018   1.29702   1.30729   1.31630   1.31868
 Alpha virt. eigenvalues --    1.32337   1.35029   1.35548   1.37363   1.37525
 Alpha virt. eigenvalues --    1.39963   1.41143   1.43274   1.45252   1.46896
 Alpha virt. eigenvalues --    1.48040   1.50217   1.52430   1.57694   1.61712
 Alpha virt. eigenvalues --    1.63777   1.65978   1.71778   1.74851   1.81048
 Alpha virt. eigenvalues --    1.82830   1.84270   1.85296   1.91297   1.92158
 Alpha virt. eigenvalues --    1.94055   1.95063   1.96827   1.97599   2.01024
 Alpha virt. eigenvalues --    2.13918   2.18977   2.22800   2.36036   2.39812
 Alpha virt. eigenvalues --    2.47079   2.48868   2.52091   2.54047   2.59555
 Alpha virt. eigenvalues --    2.62588   2.65987   2.69912   2.70925   2.71810
 Alpha virt. eigenvalues --    2.75676   2.76254   2.92708   3.01618   3.04457
 Alpha virt. eigenvalues --    3.11535   3.11665   3.12756   3.14744   3.15008
 Alpha virt. eigenvalues --    3.17287   3.18859   3.20230   3.24145   3.30512
 Alpha virt. eigenvalues --    3.36391   3.41493   3.43754   3.49636   3.64840
 Alpha virt. eigenvalues --    3.68950   3.72975   3.73579   3.76062   3.79830
 Alpha virt. eigenvalues --    3.82838   3.83836   3.90837   3.95894   3.99506
 Alpha virt. eigenvalues --    4.05319   4.06725   4.07387   4.08455   4.11562
 Alpha virt. eigenvalues --    4.17488   4.27036   4.29559   4.31307   4.31867
 Alpha virt. eigenvalues --    4.32610   4.32912   4.33386   4.33911   4.34848
 Alpha virt. eigenvalues --    4.36438   4.37337   4.39349   4.39497   4.40085
 Alpha virt. eigenvalues --    4.43246   4.46755   4.47747   4.50069   5.40351
 Alpha virt. eigenvalues --    5.58319   5.61613   5.71943   5.89935   5.93758
 Alpha virt. eigenvalues --    5.95706   6.00647   6.01856   6.02966   6.05998
 Alpha virt. eigenvalues --    6.07586   6.25060   6.31791   6.87464   6.99380
 Alpha virt. eigenvalues --    8.41466   8.41722   8.41946   8.43042   8.44019
 Alpha virt. eigenvalues --    8.46987   8.47546   8.48290   8.55119   8.73729
 Alpha virt. eigenvalues --    9.71546   9.72847   9.76521   9.83218   9.84261
 Alpha virt. eigenvalues --    9.84978   9.85952   9.86461   9.86762   9.92543
 Alpha virt. eigenvalues --    9.99794  10.03605  10.06400  10.10204  14.08932
 Alpha virt. eigenvalues --   14.12965  16.81047  16.88136  16.93479  20.29084
 Alpha virt. eigenvalues --   20.29603  20.30819  20.31086  20.36668  20.39861
 Alpha virt. eigenvalues --   20.85522  20.87590  20.93289  22.97625  25.85111
 Alpha virt. eigenvalues --   30.18017  30.28418  42.79764  42.80423  42.82499
 Alpha virt. eigenvalues --   42.94879  42.97433  65.14207  65.17594  78.12457
 Alpha virt. eigenvalues --   78.18749  78.23136  81.90364  85.99842  86.01622
 Alpha virt. eigenvalues --   86.06152 112.73633 112.73953 112.75153 112.75328
 Alpha virt. eigenvalues --  112.79261 112.81310 123.12193 162.94012 163.05104
 Alpha virt. eigenvalues --  257.02642 282.48336 282.51163 428.61941 428.63416
 Alpha virt. eigenvalues --  428.66852 431.74424 431.81115 431.85628 772.72088
 Alpha virt. eigenvalues -- 1043.646761043.671282068.336845495.151615634.51686
 Alpha virt. eigenvalues -- 5634.54960********************
          Condensed to atoms (all electrons):
               1          2          3          4          5          6
     1  Pt  77.793350   0.056621   0.069657  -0.029122   0.067120   0.064361
     2  Cl   0.056621  17.425043  -0.014570   0.003980   0.000395  -0.025471
     3  Br   0.069657  -0.014570  35.343965  -0.006006  -0.024025  -0.000506
     4  N   -0.029122   0.003980  -0.006006   5.857844   0.605130   0.601601
     5  O    0.067120   0.000395  -0.024025   0.605130   7.534400  -0.080618
     6  O    0.064361  -0.025471  -0.000506   0.601601  -0.080618   7.548028
     7  Cl   0.080831  -0.024705  -0.040065  -0.001884   0.000843  -0.022445
     8  Cl   0.081891  -0.062023  -0.008394   0.004452  -0.027228  -0.000262
     9  Br   0.077723  -0.052151  -0.042581  -0.014716   0.001287   0.001186
               7          8          9
     1  Pt   0.080831   0.081891   0.077723
     2  Cl  -0.024705  -0.062023  -0.052151
     3  Br  -0.040065  -0.008394  -0.042581
     4  N   -0.001884   0.004452  -0.014716
     5  O    0.000843  -0.027228   0.001287
     6  O   -0.022445  -0.000262   0.001186
     7  Cl  17.341372  -0.004614  -0.045315
     8  Cl  -0.004614  17.353390  -0.047584
     9  Br  -0.045315  -0.047584  35.517022
 Mulliken charges:
               1
     1  Pt  -0.262433
     2  Cl  -0.307119
     3  Br  -0.277475
     4  N   -0.021277
     5  O   -0.077303
     6  O   -0.085873
     7  Cl  -0.284020
     8  Cl  -0.289629
     9  Br  -0.394871
 Sum of Mulliken charges =  -2.00000
 Mulliken charges with hydrogens summed into heavy atoms:
               1
     1  Pt  -0.262433
     2  Cl  -0.307119
     3  Br  -0.277475
     4  N   -0.021277
     5  O   -0.077303
     6  O   -0.085873
     7  Cl  -0.284020
     8  Cl  -0.289629
     9  Br  -0.394871
 Electronic spatial extent (au):  <R**2>=           3554.9941
 Charge=             -2.0000 electrons
 Dipole moment (field-independent basis, Debye):
    X=             -0.9774    Y=              2.2949    Z=             -0.1514  Tot=              2.4989
 Quadrupole moment (field-independent basis, Debye-Ang):
   XX=           -154.7431   YY=           -152.7086   ZZ=           -151.8087
   XY=             -0.2382   XZ=              0.2368   YZ=             -1.5989
 Traceless Quadrupole moment (field-independent basis, Debye-Ang):
   XX=             -1.6563   YY=              0.3782   ZZ=              1.2781
   XY=             -0.2382   XZ=              0.2368   YZ=             -1.5989
 Octapole moment (field-independent basis, Debye-Ang**2):
  XXX=             27.6884  YYY=             54.5565  ZZZ=             -2.7875  XYY=             10.7213
  XXY=             17.3168  XXZ=             -2.4104  XZZ=             10.5076  YZZ=             16.8157
  YYZ=              1.0238  XYZ=              5.4027
 Hexadecapole moment (field-independent basis, Debye-Ang**3):
 XXXX=          -1797.9852 YYYY=          -1554.7933 ZZZZ=          -1263.2955 XXXY=            -26.3751
 XXXZ=              7.3361 YYYX=             -7.8967 YYYZ=             -3.3507 ZZZX=              1.9699
 ZZZY=             -7.0544 XXYY=           -532.0146 XXZZ=           -479.2961 YYZZ=           -451.0070
 XXYZ=            -15.3773 YYXZ=             -5.6266 ZZXY=             -3.8852
 N-N= 3.632284670531D+03 E-N=-6.387309615316D+04  KE= 2.350895206764D+04
 Calculating spin-rotation constants.
 Leave Link  601 at Sat Oct 30 02:22:08 2021, MaxMem=  2013265920 cpu:         4.6
 (Enter /scr/programas/g09/l9999.exe)
 1\1\GINC-NQTCM04\SP\RPBEPBE\Gen\Br2Cl3N1O2Pt1(2-)\DIEGO\30-Oct-2021\0\
 \#PBEPBE/gen scf=maxcycle=200 NMR=GIAO Scrf=(solvent=water)\\estrutura
  28\\-2,1\Pt,0,0.123472,-0.226841,-0.011947\Cl,0,-0.142097,-2.611347,-
 0.137285\Br,0,0.410362,2.282598,0.132366\N,0,2.215246,-0.480212,-0.015
 591\O,0,2.878242,0.207661,-0.767081\O,0,2.692371,-1.312576,0.730334\Cl
 ,0,0.102669,-0.325622,2.373768\Cl,0,0.131918,-0.127044,-2.399368\Br,0,
 -2.446785,0.059762,-0.015109\\Version=EM64L-G09RevD.01\State=1-A\HF=-2
 3832.084597\RMSD=5.906e-09\Dipole=0.3845429,0.9028683,0.0595558\Quadru
 pole=-1.2314005,0.2811844,0.9502161,0.1771025,0.1760343,1.1887513\PG=C
 01 [X(Br2Cl3N1O2Pt1)]\\@


 A SCIENTIST IS SOMEONE WHOSE CURIOSITY SURVIVES
 EDUCATION'S ASSAULTS ON IT.
                          - SIR HERMANN BONDI
 Job cpu time:       0 days  0 hours 59 minutes  2.2 seconds.
 File lengths (MBytes):  RWF=    159 Int=      0 D2E=      0 Chk=     13 Scr=      1
 Normal termination of Gaussian 09 at Sat Oct 30 02:22:08 2021.
