 Entering Gaussian System, Link 0=g09
 Input=estrutura36freq_LANL2DZ_TZVP.com
 Output=estrutura36freq_LANL2DZ_TZVP.log
 Initial command:
 /scr/programas/g09/l1.exe "/scr/diego/Gau-6796.inp" -scrdir="/scr/diego/"
 Entering Link 1 = /scr/programas/g09/l1.exe PID=      6798.
  
 Copyright (c) 1988,1990,1992,1993,1995,1998,2003,2009,2013,
            Gaussian, Inc.  All Rights Reserved.
  
 This is part of the Gaussian(R) 09 program.  It is based on
 the Gaussian(R) 03 system (copyright 2003, Gaussian, Inc.),
 the Gaussian(R) 98 system (copyright 1998, Gaussian, Inc.),
 the Gaussian(R) 94 system (copyright 1995, Gaussian, Inc.),
 the Gaussian 92(TM) system (copyright 1992, Gaussian, Inc.),
 the Gaussian 90(TM) system (copyright 1990, Gaussian, Inc.),
 the Gaussian 88(TM) system (copyright 1988, Gaussian, Inc.),
 the Gaussian 86(TM) system (copyright 1986, Carnegie Mellon
 University), and the Gaussian 82(TM) system (copyright 1983,
 Carnegie Mellon University). Gaussian is a federally registered
 trademark of Gaussian, Inc.
  
 This software contains proprietary and confidential information,
 including trade secrets, belonging to Gaussian, Inc.
  
 This software is provided under written license and may be
 used, copied, transmitted, or stored only in accord with that
 written license.
  
 The following legend is applicable only to US Government
 contracts under FAR:
  
                    RESTRICTED RIGHTS LEGEND
  
 Use, reproduction and disclosure by the US Government is
 subject to restrictions as set forth in subparagraphs (a)
 and (c) of the Commercial Computer Software - Restricted
 Rights clause in FAR 52.227-19.
  
 Gaussian, Inc.
 340 Quinnipiac St., Bldg. 40, Wallingford CT 06492
  
  
 ---------------------------------------------------------------
 Warning -- This program may not be used in any manner that
 competes with the business of Gaussian, Inc. or will provide
 assistance to any competitor of Gaussian, Inc.  The licensee
 of this program is prohibited from giving any competitor of
 Gaussian, Inc. access to this program.  By using this program,
 the user acknowledges that Gaussian, Inc. is engaged in the
 business of creating and licensing software in the field of
 computational chemistry and represents and warrants to the
 licensee that it is not a competitor of Gaussian, Inc. and that
 it will not use this program in any manner prohibited above.
 ---------------------------------------------------------------
  

 Cite this work as:
 Gaussian 09, Revision D.01,
 M. J. Frisch, G. W. Trucks, H. B. Schlegel, G. E. Scuseria, 
 M. A. Robb, J. R. Cheeseman, G. Scalmani, V. Barone, B. Mennucci, 
 G. A. Petersson, H. Nakatsuji, M. Caricato, X. Li, H. P. Hratchian, 
 A. F. Izmaylov, J. Bloino, G. Zheng, J. L. Sonnenberg, M. Hada, 
 M. Ehara, K. Toyota, R. Fukuda, J. Hasegawa, M. Ishida, T. Nakajima, 
 Y. Honda, O. Kitao, H. Nakai, T. Vreven, J. A. Montgomery, Jr., 
 J. E. Peralta, F. Ogliaro, M. Bearpark, J. J. Heyd, E. Brothers, 
 K. N. Kudin, V. N. Staroverov, T. Keith, R. Kobayashi, J. Normand, 
 K. Raghavachari, A. Rendell, J. C. Burant, S. S. Iyengar, J. Tomasi, 
 M. Cossi, N. Rega, J. M. Millam, M. Klene, J. E. Knox, J. B. Cross, 
 V. Bakken, C. Adamo, J. Jaramillo, R. Gomperts, R. E. Stratmann, 
 O. Yazyev, A. J. Austin, R. Cammi, C. Pomelli, J. W. Ochterski, 
 R. L. Martin, K. Morokuma, V. G. Zakrzewski, G. A. Voth, 
 P. Salvador, J. J. Dannenberg, S. Dapprich, A. D. Daniels, 
 O. Farkas, J. B. Foresman, J. V. Ortiz, J. Cioslowski, 
 and D. J. Fox, Gaussian, Inc., Wallingford CT, 2013.
 
 ******************************************
 Gaussian 09:  EM64L-G09RevD.01 24-Apr-2013
                30-Oct-2021 
 ******************************************
 %mem=15Gb
 %nproc=4
 Will use up to    4 processors via shared memory.
 ----------------------------------------------------------
 #PBEPBE/gen scf=maxcycle=200 NMR=GIAO Scrf=(solvent=water)
 ----------------------------------------------------------
 1/38=1/1;
 2/12=2,17=6,18=5,40=1/2;
 3/5=7,11=2,16=1,25=1,30=1,70=2201,72=1,74=1009/1,2,8,3;
 4//1;
 5/5=2,7=200,38=5,53=1/2;
 8/6=1,10=90,11=11/1;
 10/13=100,45=16/2;
 6/7=2,8=2,9=2,10=2,28=1/1;
 99/9=1/99;
 Leave Link    1 at Sat Oct 30 04:18:21 2021, MaxMem=  2013265920 cpu:         0.2
 (Enter /scr/programas/g09/l101.exe)
 ------------
 estrutura 36
 ------------
 Symbolic Z-matrix:
 Charge = -2 Multiplicity = 1
 Pt                   -0.00003  -0.00004   0.12247 
 Br                   -1.74807  -1.85095   0.11495 
 Br                    0.00037  -0.00017  -2.46134 
 Br                   -1.82884   1.77152   0.11307 
 Br                    1.82896  -1.77127   0.11375 
 N                    -0.00051   0.00008   2.23239 
 O                    -1.07086  -0.01693   2.81034 
 O                     1.06951   0.01708   2.81096 
 Br                    1.74805   1.85091   0.11529 
 
 NAtoms=      9 NQM=        9 NQMF=       0 NMMI=      0 NMMIF=      0
                NMic=       0 NMicF=      0.
                    Isotopes and Nuclear Properties:
 (Nuclear quadrupole moments (NQMom) in fm**2, nuclear magnetic moments (NMagM)
  in nuclear magnetons)

  Atom         1           2           3           4           5           6           7           8           9
 IAtWgt=         195          79          79          79          79          14          16          16          79
 AtmWgt= 194.9648000  78.9183361  78.9183361  78.9183361  78.9183361  14.0030740  15.9949146  15.9949146  78.9183361
 NucSpn=           1           3           3           3           3           2           0           0           3
 AtZEff=   0.0000000   0.0000000   0.0000000   0.0000000   0.0000000   0.0000000   0.0000000   0.0000000   0.0000000
 NQMom=    0.0000000  31.3000000  31.3000000  31.3000000  31.3000000   2.0440000   0.0000000   0.0000000  31.3000000
 NMagM=    0.6095000   2.1063990   2.1063990   2.1063990   2.1063990   0.4037610   0.0000000   0.0000000   2.1063990
 AtZNuc=  78.0000000  35.0000000  35.0000000  35.0000000  35.0000000   7.0000000   8.0000000   8.0000000  35.0000000
 Leave Link  101 at Sat Oct 30 04:18:21 2021, MaxMem=  2013265920 cpu:         0.4
 (Enter /scr/programas/g09/l202.exe)
                          Input orientation:                          
 ---------------------------------------------------------------------
 Center     Atomic      Atomic             Coordinates (Angstroms)
 Number     Number       Type             X           Y           Z
 ---------------------------------------------------------------------
      1         78           0       -0.000027   -0.000035    0.122473
      2         35           0       -1.748069   -1.850954    0.114947
      3         35           0        0.000372   -0.000170   -2.461344
      4         35           0       -1.828842    1.771516    0.113069
      5         35           0        1.828955   -1.771273    0.113749
      6          7           0       -0.000509    0.000079    2.232388
      7          8           0       -1.070857   -0.016931    2.810337
      8          8           0        1.069514    0.017076    2.810956
      9         35           0        1.748053    1.850909    0.115294
 ---------------------------------------------------------------------
                    Distance matrix (angstroms):
                    1          2          3          4          5
     1  Pt   0.000000
     2  Br   2.545900   0.000000
     3  Br   2.583817   3.622116   0.000000
     4  Br   2.546183   3.623371   3.621118   0.000000
     5  Br   2.546082   3.577912   3.620998   5.092233   0.000000
     6  N    2.109915   3.311170   4.693732   3.312447   3.312591
     7  O    2.893367   3.329772   5.379445   3.323904   4.331075
     8  O    2.893467   4.323977   5.379638   4.330949   3.324134
     9  Br   2.545944   5.091823   3.622147   3.577777   3.623086
                    6          7          8          9
     6  N    0.000000
     7  O    1.216536   0.000000
     8  O    1.216544   2.140641   0.000000
     9  Br   3.311363   4.324157   3.330158   0.000000
 Stoichiometry    Br5NO2Pt(2-)
 Framework group  C1[X(Br5NO2Pt)]
 Deg. of freedom    21
 Full point group                 C1      NOp   1
 Largest Abelian subgroup         C1      NOp   1
 Largest concise Abelian subgroup C1      NOp   1
                         Standard orientation:                         
 ---------------------------------------------------------------------
 Center     Atomic      Atomic             Coordinates (Angstroms)
 Number     Number       Type             X           Y           Z
 ---------------------------------------------------------------------
      1         78           0        0.000027   -0.000035   -0.122473
      2         35           0        1.748063   -1.850960   -0.114947
      3         35           0       -0.000372   -0.000170    2.461344
      4         35           0        1.828848    1.771510   -0.113069
      5         35           0       -1.828961   -1.771267   -0.113749
      6          7           0        0.000509    0.000079   -2.232388
      7          8           0        1.070857   -0.016934   -2.810337
      8          8           0       -1.069514    0.017080   -2.810956
      9         35           0       -1.748047    1.850915   -0.115294
 ---------------------------------------------------------------------
 Rotational constants (GHZ):      0.2741573      0.2725500      0.2426323
 Leave Link  202 at Sat Oct 30 04:18:21 2021, MaxMem=  2013265920 cpu:         0.0
 (Enter /scr/programas/g09/l301.exe)
 General basis read from cards:  (5D, 7F)
 Centers:       6
 S 6 1.00
     Exponent=  1.2238326969D+04 Coefficients=  5.6000000000D-04
     Exponent=  4.0794423230D+03 Coefficients=  7.7000000000D-04
     Exponent=  1.3598141077D+03 Coefficients=  4.0600000000D-03
     Exponent=  4.5327136922D+02 Coefficients=  1.3910000000D-02
     Exponent=  1.5109045641D+02 Coefficients=  5.2990000000D-02
     Exponent=  5.0363485469D+01 Coefficients=  1.6952000000D-01
 S 1 1.00
     Exponent=  1.6787828490D+01 Coefficients=  1.0000000000D+00
 S 1 1.00
     Exponent=  5.5959428299D+00 Coefficients=  1.0000000000D+00
 S 1 1.00
     Exponent=  1.8653142766D+00 Coefficients=  1.0000000000D+00
 S 1 1.00
     Exponent=  6.2177142554D-01 Coefficients=  1.0000000000D+00
 S 1 1.00
     Exponent=  2.0725714185D-01 Coefficients=  1.0000000000D+00
 P 4 1.00
     Exponent=  5.4142548249D+01 Coefficients=  3.9700000000D-03
     Exponent=  1.6659245615D+01 Coefficients=  1.9540000000D-02
     Exponent=  5.1259217277D+00 Coefficients=  9.9790000000D-02
     Exponent=  1.5772066854D+00 Coefficients=  3.2845000000D-01
 P 1 1.00
     Exponent=  4.8529436475D-01 Coefficients=  1.0000000000D+00
 P 1 1.00
     Exponent=  1.4932134300D-01 Coefficients=  1.0000000000D+00
 D 1 1.00
     Exponent=  4.7700000000D-01 Coefficients=  1.0000000000D+00
 D 1 1.00
     Exponent=  1.5026000000D-01 Coefficients=  1.0000000000D+00
 ****
 Centers:       7      8
 S 6 1.00
     Exponent=  1.6178118231D+04 Coefficients=  6.0000000000D-04
     Exponent=  5.3927060771D+03 Coefficients=  7.8000000000D-04
     Exponent=  1.7975686924D+03 Coefficients=  4.1000000000D-03
     Exponent=  5.9918956413D+02 Coefficients=  1.3880000000D-02
     Exponent=  1.9972985471D+02 Coefficients=  5.2770000000D-02
     Exponent=  6.6576618236D+01 Coefficients=  1.6924000000D-01
 S 1 1.00
     Exponent=  2.2192206079D+01 Coefficients=  1.0000000000D+00
 S 1 1.00
     Exponent=  7.3974020263D+00 Coefficients=  1.0000000000D+00
 S 1 1.00
     Exponent=  2.4658006754D+00 Coefficients=  1.0000000000D+00
 S 1 1.00
     Exponent=  8.2193355847D-01 Coefficients=  1.0000000000D+00
 S 1 1.00
     Exponent=  2.7397785282D-01 Coefficients=  1.0000000000D+00
 P 4 1.00
     Exponent=  7.3854398670D+01 Coefficients=  4.0200000000D-03
     Exponent=  2.2724430360D+01 Coefficients=  2.0130000000D-02
     Exponent=  6.9921324184D+00 Coefficients=  1.0470000000D-01
     Exponent=  2.1514253595D+00 Coefficients=  3.3605000000D-01
 P 1 1.00
     Exponent=  6.6197703370D-01 Coefficients=  1.0000000000D+00
 P 1 1.00
     Exponent=  2.0368524114D-01 Coefficients=  1.0000000000D+00
 D 1 1.00
     Exponent=  9.2880000000D-01 Coefficients=  1.0000000000D+00
 D 1 1.00
     Exponent=  2.2975000000D-01 Coefficients=  1.0000000000D+00
 ****
 Centers:       2      3      4      5      9
 S 7 1.00
     Exponent=  3.4867099512D+05 Coefficients=  2.4100000000D-03
     Exponent=  1.3946839805D+05 Coefficients=  1.2000000000D-04
     Exponent=  5.5787359218D+04 Coefficients=  5.8500000000D-03
     Exponent=  2.2314943687D+04 Coefficients=  8.2100000000D-03
     Exponent=  8.9259774750D+03 Coefficients=  2.4090000000D-02
     Exponent=  3.5703909900D+03 Coefficients=  5.7250000000D-02
     Exponent=  1.4281563960D+03 Coefficients=  1.4467000000D-01
 S 1 1.00
     Exponent=  5.7126255840D+02 Coefficients=  1.0000000000D+00
 S 1 1.00
     Exponent=  2.2850502336D+02 Coefficients=  1.0000000000D+00
 S 1 1.00
     Exponent=  9.1402009344D+01 Coefficients=  1.0000000000D+00
 S 1 1.00
     Exponent=  3.6560803737D+01 Coefficients=  1.0000000000D+00
 S 1 1.00
     Exponent=  1.4624321495D+01 Coefficients=  1.0000000000D+00
 S 1 1.00
     Exponent=  5.8497285980D+00 Coefficients=  1.0000000000D+00
 S 1 1.00
     Exponent=  2.3398914392D+00 Coefficients=  1.0000000000D+00
 S 1 1.00
     Exponent=  9.3595657568D-01 Coefficients=  1.0000000000D+00
 S 1 1.00
     Exponent=  3.7438263027D-01 Coefficients=  1.0000000000D+00
 S 1 1.00
     Exponent=  1.4975305211D-01 Coefficients=  1.0000000000D+00
 S 1 1.00
     Exponent=  5.9901220843D-02 Coefficients=  1.0000000000D+00
 P 5 1.00
     Exponent=  4.2715043612D+03 Coefficients=  2.0900000000D-03
     Exponent=  1.5532743132D+03 Coefficients=  5.5700000000D-03
     Exponent=  5.6482702297D+02 Coefficients=  3.0250000000D-02
     Exponent=  2.0539164472D+02 Coefficients=  1.2196000000D-01
     Exponent=  7.4687870806D+01 Coefficients=  3.7861000000D-01
 P 1 1.00
     Exponent=  2.7159225748D+01 Coefficients=  1.0000000000D+00
 P 1 1.00
     Exponent=  9.8760820901D+00 Coefficients=  1.0000000000D+00
 P 1 1.00
     Exponent=  3.5913025782D+00 Coefficients=  1.0000000000D+00
 P 1 1.00
     Exponent=  1.3059282103D+00 Coefficients=  1.0000000000D+00
 P 1 1.00
     Exponent=  4.7488298555D-01 Coefficients=  1.0000000000D+00
 P 1 1.00
     Exponent=  1.7268472202D-01 Coefficients=  1.0000000000D+00
 P 1 1.00
     Exponent=  6.2794444370D-02 Coefficients=  1.0000000000D+00
 P 1 1.00
     Exponent=  2.2834343407D-02 Coefficients=  1.0000000000D+00
 D 4 1.00
     Exponent=  1.5776624282D+02 Coefficients=  7.9800000000D-03
     Exponent=  5.2588747607D+01 Coefficients=  4.9870000000D-02
     Exponent=  1.7529582536D+01 Coefficients=  2.2405000000D-01
     Exponent=  5.8431941786D+00 Coefficients=  4.4250000000D-01
 D 1 1.00
     Exponent=  1.9477313929D+00 Coefficients=  1.0000000000D+00
 D 1 1.00
     Exponent=  6.4924379762D-01 Coefficients=  1.0000000000D+00
 F 1 1.00
     Exponent=  1.6480000000D+00 Coefficients=  1.0000000000D+00
 F 1 1.00
     Exponent=  4.5490000000D-01 Coefficients=  1.0000000000D+00
 ****
 Centers:       1
 S 9 1.00
     Exponent=  2.1644816090D+06 Coefficients=  1.2320000000D-02
     Exponent=  1.0822408045D+06 Coefficients=  1.2970000000D-02
     Exponent=  5.4112040224D+05 Coefficients=  2.6370000000D-02
     Exponent=  2.7056020112D+05 Coefficients=  9.0400000000D-03
     Exponent=  1.3528010056D+05 Coefficients=  3.4980000000D-02
     Exponent=  6.7640050280D+04 Coefficients=  1.2220000000D-02
     Exponent=  3.3820025140D+04 Coefficients=  6.0520000000D-02
     Exponent=  1.6910012570D+04 Coefficients=  6.4930000000D-02
     Exponent=  8.4550062850D+03 Coefficients=  1.3819000000D-01
 S 1 1.00
     Exponent=  4.2275031425D+03 Coefficients=  1.0000000000D+00
 S 1 1.00
     Exponent=  2.1137515713D+03 Coefficients=  1.0000000000D+00
 S 1 1.00
     Exponent=  1.0568757856D+03 Coefficients=  1.0000000000D+00
 S 1 1.00
     Exponent=  5.2843789281D+02 Coefficients=  1.0000000000D+00
 S 1 1.00
     Exponent=  2.6421894641D+02 Coefficients=  1.0000000000D+00
 S 1 1.00
     Exponent=  1.3210947320D+02 Coefficients=  1.0000000000D+00
 S 1 1.00
     Exponent=  6.6054736602D+01 Coefficients=  1.0000000000D+00
 S 1 1.00
     Exponent=  3.3027368301D+01 Coefficients=  1.0000000000D+00
 S 1 1.00
     Exponent=  1.6513684150D+01 Coefficients=  1.0000000000D+00
 S 1 1.00
     Exponent=  8.2568420752D+00 Coefficients=  1.0000000000D+00
 S 1 1.00
     Exponent=  4.1284210376D+00 Coefficients=  1.0000000000D+00
 S 1 1.00
     Exponent=  2.0642105188D+00 Coefficients=  1.0000000000D+00
 S 1 1.00
     Exponent=  1.0321052594D+00 Coefficients=  1.0000000000D+00
 S 1 1.00
     Exponent=  5.1605262970D-01 Coefficients=  1.0000000000D+00
 S 1 1.00
     Exponent=  2.5802631485D-01 Coefficients=  1.0000000000D+00
 S 1 1.00
     Exponent=  1.2901315743D-01 Coefficients=  1.0000000000D+00
 S 1 1.00
     Exponent=  6.4506578713D-02 Coefficients=  1.0000000000D+00
 P 7 1.00
     Exponent=  3.2357915258D+04 Coefficients=  5.0200000000D-03
     Exponent=  1.4381295670D+04 Coefficients=  2.0200000000D-03
     Exponent=  6.3916869645D+03 Coefficients=  1.8070000000D-02
     Exponent=  2.8407497620D+03 Coefficients=  3.6620000000D-02
     Exponent=  1.2625554498D+03 Coefficients=  1.1172000000D-01
     Exponent=  5.6113575545D+02 Coefficients=  2.5586000000D-01
     Exponent=  2.4939366909D+02 Coefficients=  4.2608000000D-01
 P 1 1.00
     Exponent=  1.1084163071D+02 Coefficients=  1.0000000000D+00
 P 1 1.00
     Exponent=  4.9262946981D+01 Coefficients=  1.0000000000D+00
 P 1 1.00
     Exponent=  2.1894643103D+01 Coefficients=  1.0000000000D+00
 P 1 1.00
     Exponent=  9.7309524900D+00 Coefficients=  1.0000000000D+00
 P 1 1.00
     Exponent=  4.3248677733D+00 Coefficients=  1.0000000000D+00
 P 1 1.00
     Exponent=  1.9221634548D+00 Coefficients=  1.0000000000D+00
 P 1 1.00
     Exponent=  8.5429486881D-01 Coefficients=  1.0000000000D+00
 P 1 1.00
     Exponent=  3.7968660836D-01 Coefficients=  1.0000000000D+00
 P 1 1.00
     Exponent=  1.6874960372D-01 Coefficients=  1.0000000000D+00
 P 1 1.00
     Exponent=  7.4999823874D-02 Coefficients=  1.0000000000D+00
 P 1 1.00
     Exponent=  3.3333255055D-02 Coefficients=  1.0000000000D+00
 D 5 1.00
     Exponent=  1.9119003508D+03 Coefficients=  4.3300000000D-03
     Exponent=  7.6476014031D+02 Coefficients=  1.7780000000D-02
     Exponent=  3.0590405613D+02 Coefficients=  8.9710000000D-02
     Exponent=  1.2236162245D+02 Coefficients=  3.1123000000D-01
     Exponent=  4.8944648980D+01 Coefficients=  5.3206000000D-01
 D 1 1.00
     Exponent=  1.9577859592D+01 Coefficients=  1.0000000000D+00
 D 1 1.00
     Exponent=  7.8311438368D+00 Coefficients=  1.0000000000D+00
 D 1 1.00
     Exponent=  3.1324575347D+00 Coefficients=  1.0000000000D+00
 D 1 1.00
     Exponent=  1.2529830139D+00 Coefficients=  1.0000000000D+00
 D 1 1.00
     Exponent=  5.0119320556D-01 Coefficients=  1.0000000000D+00
 D 1 1.00
     Exponent=  2.0047728222D-01 Coefficients=  1.0000000000D+00
 D 1 1.00
     Exponent=  8.0190912889D-02 Coefficients=  1.0000000000D+00
 D 1 1.00
     Exponent=  3.2076365156D-02 Coefficients=  1.0000000000D+00
 F 4 1.00
     Exponent=  8.2289680979D+01 Coefficients=  6.1870000000D-02
     Exponent=  2.9923520356D+01 Coefficients=  2.4823000000D-01
     Exponent=  1.0881280130D+01 Coefficients=  4.9956000000D-01
     Exponent=  3.9568291380D+00 Coefficients=  4.0380000000D-01
 F 1 1.00
     Exponent=  1.4388469593D+00 Coefficients=  1.0000000000D+00
 F 1 1.00
     Exponent=  5.2321707610D-01 Coefficients=  1.0000000000D+00
 G 1 1.00
     Exponent=  2.6700000000D+00 Coefficients=  1.0000000000D+00
 G 1 1.00
     Exponent=  9.0960000000D-01 Coefficients=  1.0000000000D+00
 ****
 Ernie: Thresh=  0.10000D-02 Tol=  0.10000D-05 Strict=F.
 There are   634 symmetry adapted cartesian basis functions of A   symmetry.
 There are   553 symmetry adapted basis functions of A   symmetry.
   553 basis functions,   936 primitive gaussians,   634 cartesian basis functions
   139 alpha electrons      139 beta electrons
       nuclear repulsion energy      5503.6676064650 Hartrees.
 IExCor= 1009 DFT=T Ex=PBE Corr=PBE ExCW=0 ScaHFX=  0.000000
 ScaDFX=  1.000000  1.000000  1.000000  1.000000 ScalE2=  1.000000  1.000000
 IRadAn=      0 IRanWt=     -1 IRanGd=            0 ICorTp=0 IEmpDi=  4
 NAtoms=    9 NActive=    9 NUniq=    9 SFac= 1.00D+00 NAtFMM=   60 NAOKFM=F Big=F
 Integral buffers will be    131072 words long.
 Raffenetti 2 integral format.
 Two-electron integral symmetry is turned on.
 ------------------------------------------------------------------------------
 Polarizable Continuum Model (PCM)
 =================================
 Model                : PCM (using non-symmetric T matrix).
 Atomic radii         : UFF (Universal Force Field).
 Polarization charges : Total charges.
 Charge compensation  : None.
 Solution method      : On-the-fly selection.
 Cavity type          : Scaled VdW (van der Waals Surface) (Alpha=1.100).
 Cavity algorithm     : GePol (No added spheres)
                        Default sphere list used, NSphG=    9.
                        Lebedev-Laikov grids with approx.  5.0 points / Ang**2.
                        Smoothing algorithm: Karplus/York (Gamma=1.0000).
                        Polarization charges: spherical gaussians, with
                                              point-specific exponents (IZeta= 3).
                        Self-potential: point-specific (ISelfS= 7).
                        Self-field    : sphere-specific E.n sum rule (ISelfD= 2).
 Solvent              : Water, Eps=  78.355300 Eps(inf)=   1.777849
 ------------------------------------------------------------------------------
 Spheres list:
 ISph  on   Nord     Re0    Alpha      Xe            Ye            Ze
    1  Pt      1    1.3770  1.100      0.000027     -0.000035     -0.122473
    2  Br      2    2.0945  1.100      1.748063     -1.850960     -0.114947
    3  Br      3    2.0945  1.100     -0.000372     -0.000170      2.461344
    4  Br      4    2.0945  1.100      1.828848      1.771510     -0.113069
    5  Br      5    2.0945  1.100     -1.828961     -1.771267     -0.113749
    6   N      6    1.8300  1.100      0.000509      0.000079     -2.232388
    7   O      7    1.7500  1.100      1.070857     -0.016934     -2.810337
    8   O      8    1.7500  1.100     -1.069514      0.017080     -2.810956
    9  Br      9    2.0945  1.100     -1.748047      1.850915     -0.115294
 ------------------------------------------------------------------------------
 GePol: Number of generator spheres                  =       9
 GePol: Total number of spheres                      =       9
 GePol: Number of exposed spheres                    =       8 ( 88.89%)
 GePol: Number of points                             =    1777
 GePol: Average weight of points                     =       0.14
 GePol: Minimum weight of points                     =   0.94D-07
 GePol: Maximum weight of points                     =    0.18225
 GePol: Number of points with low weight             =      22
 GePol: Fraction of low-weight points (<1% of avg)   =       1.24%
 GePol: Cavity surface area                          =    250.396 Ang**2
 GePol: Cavity volume                                =    273.957 Ang**3
 Leave Link  301 at Sat Oct 30 04:18:22 2021, MaxMem=  2013265920 cpu:         0.7
 (Enter /scr/programas/g09/l302.exe)
 NPDir=0 NMtPBC=     1 NCelOv=     1 NCel=       1 NClECP=     1 NCelD=      1
         NCelK=      1 NCelE2=     1 NClLst=     1 CellRange=     0.0.
 One-electron integrals computed using PRISM.
 NBasis=   553 RedAO= T EigKep=  8.61D-05  NBF=   553
 NBsUse=   553 1.00D-06 EigRej= -1.00D+00 NBFU=   553
 Precomputing XC quadrature grid using
 IXCGrd= 4 IRadAn=           0 IRanWt=          -1 IRanGd=           0 AccXCQ= 0.00D+00.
 Defaulting to unpruned grid for atomic number  78.
 Generated NRdTot=       0 NPtTot=           0 NUsed=           0 NTot=          32
 NSgBfM=   571   571   571   571   571 MxSgAt=     9 MxSgA2=     9.
 Leave Link  302 at Sat Oct 30 04:18:23 2021, MaxMem=  2013265920 cpu:         4.0
 (Enter /scr/programas/g09/l308.exe)
 Leave Link  308 at Sat Oct 30 04:18:23 2021, MaxMem=  2013265920 cpu:         0.7
 (Enter /scr/programas/g09/l303.exe)
 DipDrv:  MaxL=1.
 Leave Link  303 at Sat Oct 30 04:18:23 2021, MaxMem=  2013265920 cpu:         0.4
 (Enter /scr/programas/g09/l401.exe)
 ExpMin= 2.28D-02 ExpMax= 2.16D+06 ExpMxC= 2.16D+06 IAcc=4 IRadAn=    199590 AccDes= 0.00D+00
 Harris functional with IExCor= 1009 and IRadAn=  199590 diagonalized for initial guess.
 HarFok:  IExCor= 1009 AccDes= 0.00D+00 IRadAn=    199590 IDoV= 1 UseB2=F ITyADJ=14
 ICtDFT=  3500011 ScaDFX=  1.000000  1.000000  1.000000  1.000000
 FoFCou: FMM=F IPFlag=           0 FMFlag=      100000 FMFlg1=           0
         NFxFlg=           0 DoJE=T BraDBF=F KetDBF=T FulRan=T
         wScrn=  0.000000 ICntrl=     500 IOpCl=  0 I1Cent=   200000004 NGrid=           0
         NMat0=    1 NMatS0=      1 NMatT0=    0 NMatD0=    1 NMtDS0=    0 NMtDT0=    0
 Petite list used in FoFCou.
 Harris En= -30169.7146002978    
 JPrj=0 DoOrth=F DoCkMO=F.
 Leave Link  401 at Sat Oct 30 04:18:40 2021, MaxMem=  2013265920 cpu:        66.4
 (Enter /scr/programas/g09/l502.exe)
 Closed shell SCF:
 Using DIIS extrapolation, IDIIS=  1040.
 Integral symmetry usage will be decided dynamically.
 IVT=     1256780 IEndB=     1256780 NGot=  2013265920 MDV=  2012452131
 LenX=  2012452131 LenY=  2012049541
 Requested convergence on RMS density matrix=1.00D-08 within 200 cycles.
 Requested convergence on MAX density matrix=1.00D-06.
 Requested convergence on             energy=1.00D-06.
 No special actions if energy rises.
 Fock matrices will be formed incrementally for  20 cycles.

 Cycle   1  Pass 1  IDiag  1:
 FoFJK:  IHMeth= 1 ICntrl=     500 DoSepK=F KAlg= 0 I1Cent=   0 FoldK=F
 IRaf= 720000000 NMat=   1 IRICut=       1 DoRegI=T DoRafI=F ISym2E= 0.
 FoFCou: FMM=F IPFlag=           0 FMFlag=      100000 FMFlg1=           0
         NFxFlg=           0 DoJE=T BraDBF=F KetDBF=F FulRan=T
         wScrn=  0.000000 ICntrl=     500 IOpCl=  0 I1Cent=           0 NGrid=           0
         NMat0=    1 NMatS0=      1 NMatT0=    0 NMatD0=    1 NMtDS0=    0 NMtDT0=    0
 Symmetry not used in FoFCou.
 Defaulting to unpruned grid for atomic number  78.
 Defaulting to unpruned grid for atomic number  78.
 Defaulting to unpruned grid for atomic number  78.
 Defaulting to unpruned grid for atomic number  78.
 Inv3:  Mode=1 IEnd=     9473187.
 Iteration    1 A*A^-1 deviation from unit magnitude is 6.88D-15 for   1329.
 Iteration    1 A*A^-1 deviation from orthogonality  is 4.28D-15 for   1640    587.
 Iteration    1 A^-1*A deviation from unit magnitude is 7.33D-15 for    384.
 Iteration    1 A^-1*A deviation from orthogonality  is 8.40D-15 for    353    339.
 E= -30150.5288940647    
 DIIS: error= 8.04D-01 at cycle   1 NSaved=   1.
 NSaved= 1 IEnMin= 1 EnMin= -30150.5288940647     IErMin= 1 ErrMin= 8.04D-01
 ErrMax= 8.04D-01  0.00D+00 EMaxC= 1.00D-01 BMatC= 3.26D+02 BMatP= 3.26D+02
 IDIUse=3 WtCom= 0.00D+00 WtEn= 1.00D+00
 Coeff-Com:  0.100D+01
 Coeff-En:   0.100D+01
 Coeff:      0.100D+01
 Gap=     0.200 Goal=   None    Shift=    0.000
 GapD=    0.200 DampG=1.000 DampE=0.125 DampFc=0.1250 IDamp=-1.
 Damping current iteration by 1.25D-01
 RMSDP=1.10D-02 MaxDP=1.46D+00              OVMax= 8.71D-01

 Cycle   2  Pass 1  IDiag  1:
 RMSU=  1.36D-03    CP:  1.01D+00
 E= -30151.9796132709     Delta-E=       -1.450719206216 Rises=F Damp=T
 DIIS: error= 7.00D-01 at cycle   2 NSaved=   2.
 NSaved= 2 IEnMin= 2 EnMin= -30151.9796132709     IErMin= 2 ErrMin= 7.00D-01
 ErrMax= 7.00D-01  0.00D+00 EMaxC= 1.00D-01 BMatC= 2.32D+02 BMatP= 3.26D+02
 IDIUse=3 WtCom= 0.00D+00 WtEn= 1.00D+00
 Coeff-Com: -0.479D+01 0.579D+01
 Coeff-En:   0.000D+00 0.100D+01
 Coeff:      0.000D+00 0.100D+01
 Gap=    -0.146 Goal=   None    Shift=    0.000
 RMSDP=5.09D-03 MaxDP=4.60D-01 DE=-1.45D+00 OVMax= 9.52D-01

 Cycle   3  Pass 1  IDiag  1:
 RMSU=  3.68D-03    CP:  1.04D+00  3.00D+00
 E= -30148.8092801543     Delta-E=        3.170333116548 Rises=F Damp=F
 DIIS: error= 2.34D-01 at cycle   3 NSaved=   3.
 NSaved= 3 IEnMin= 2 EnMin= -30151.9796132709     IErMin= 3 ErrMin= 2.34D-01
 ErrMax= 2.34D-01  0.00D+00 EMaxC= 1.00D-01 BMatC= 3.10D+01 BMatP= 2.32D+02
 IDIUse=3 WtCom= 0.00D+00 WtEn= 1.00D+00
 EnCoef did   100 forward-backward iterations
 Coeff-Com:  0.100D+01-0.943D+00 0.939D+00
 Coeff-En:   0.528D+00 0.321D-01 0.440D+00
 Coeff:      0.528D+00 0.321D-01 0.440D+00
 Gap=    -0.002 Goal=   None    Shift=    0.000
 RMSDP=5.52D-03 MaxDP=6.02D-01 DE= 3.17D+00 OVMax= 9.99D-01

 Cycle   4  Pass 1  IDiag  1:
 RMSU=  2.75D-03    CP:  1.01D+00  6.93D-01  2.60D-01
 E= -30155.4053524029     Delta-E=       -6.596072248525 Rises=F Damp=F
 DIIS: error= 4.45D-02 at cycle   4 NSaved=   4.
 NSaved= 4 IEnMin= 4 EnMin= -30155.4053524029     IErMin= 4 ErrMin= 4.45D-02
 ErrMax= 4.45D-02  0.00D+00 EMaxC= 1.00D-01 BMatC= 1.89D+00 BMatP= 3.10D+01
 IDIUse=3 WtCom= 5.55D-01 WtEn= 4.45D-01
 Coeff-Com:  0.104D+00-0.588D-01 0.321D-01 0.923D+00
 Coeff-En:   0.000D+00 0.000D+00 0.533D-01 0.947D+00
 Coeff:      0.577D-01-0.327D-01 0.415D-01 0.933D+00
 Gap=     0.201 Goal=   None    Shift=    0.000
 RMSDP=5.20D-03 MaxDP=5.63D-01 DE=-6.60D+00 OVMax= 9.81D-01

 Cycle   5  Pass 1  IDiag  1:
 RMSU=  3.20D-03    CP:  1.01D+00  2.18D+00  6.61D-01 -1.77D-01
 E= -30149.2716233913     Delta-E=        6.133729011599 Rises=F Damp=F
 DIIS: error= 9.26D-02 at cycle   5 NSaved=   5.
 NSaved= 5 IEnMin= 4 EnMin= -30155.4053524029     IErMin= 4 ErrMin= 4.45D-02
 ErrMax= 9.26D-02  0.00D+00 EMaxC= 1.00D-01 BMatC= 5.17D+00 BMatP= 1.89D+00
 IDIUse=2 WtCom= 0.00D+00 WtEn= 1.00D+00
 Coeff-En:   0.000D+00 0.000D+00 0.000D+00 0.837D+00 0.163D+00
 Coeff:      0.000D+00 0.000D+00 0.000D+00 0.837D+00 0.163D+00
 Gap=    -0.054 Goal=   None    Shift=    0.000
 RMSDP=3.36D-03 MaxDP=3.26D-01 DE= 6.13D+00 OVMax= 8.05D-01

 Cycle   6  Pass 1  IDiag  1:
 RMSU=  2.29D-03    CP:  1.01D+00  1.46D+00  5.02D-01  1.04D-01  3.69D-01
 E= -30154.0790203010     Delta-E=       -4.807396909746 Rises=F Damp=F
 DIIS: error= 5.43D-02 at cycle   6 NSaved=   6.
 NSaved= 6 IEnMin= 4 EnMin= -30155.4053524029     IErMin= 4 ErrMin= 4.45D-02
 ErrMax= 5.43D-02  0.00D+00 EMaxC= 1.00D-01 BMatC= 1.60D+00 BMatP= 1.89D+00
 IDIUse=3 WtCom= 4.57D-01 WtEn= 5.43D-01
 EnCoef did     4 forward-backward iterations
 Coeff-Com: -0.482D-01 0.786D-01-0.407D-01 0.572D+00 0.544D-01 0.384D+00
 Coeff-En:   0.000D+00 0.000D+00 0.000D+00 0.690D+00 0.930D-02 0.300D+00
 Coeff:     -0.221D-01 0.359D-01-0.186D-01 0.636D+00 0.299D-01 0.338D+00
 Gap=     0.077 Goal=   None    Shift=    0.000
 RMSDP=3.19D-03 MaxDP=2.69D-01 DE=-4.81D+00 OVMax= 9.92D-01

 Cycle   7  Pass 1  IDiag  1:
 RMSU=  1.81D-03    CP:  1.01D+00  1.27D+00  5.13D-01  3.45D-01  3.04D-01
                    CP: -9.77D-02
 E= -30155.0191684444     Delta-E=       -0.940148143374 Rises=F Damp=F
 DIIS: error= 4.36D-02 at cycle   7 NSaved=   7.
 NSaved= 7 IEnMin= 4 EnMin= -30155.4053524029     IErMin= 7 ErrMin= 4.36D-02
 ErrMax= 4.36D-02  0.00D+00 EMaxC= 1.00D-01 BMatC= 6.95D-01 BMatP= 1.60D+00
 IDIUse=3 WtCom= 5.64D-01 WtEn= 4.36D-01
 EnCoef did     2 forward-backward iterations
 Coeff-Com:  0.106D+00-0.110D+00-0.123D-01 0.371D+00-0.754D-01 0.366D+00
 Coeff-Com:  0.354D+00
 Coeff-En:   0.000D+00 0.000D+00 0.000D+00 0.560D+00 0.000D+00 0.238D+00
 Coeff-En:   0.203D+00
 Coeff:      0.600D-01-0.622D-01-0.691D-02 0.453D+00-0.425D-01 0.310D+00
 Coeff:      0.288D+00
 Gap=    -0.006 Goal=   None    Shift=    0.000
 RMSDP=2.21D-03 MaxDP=2.49D-01 DE=-9.40D-01 OVMax= 6.33D-01

 Cycle   8  Pass 1  IDiag  1:
 RMSU=  9.51D-04    CP:  1.01D+00  9.26D-01  2.97D-01  4.53D-01  1.10D-01
                    CP:  2.58D-01  2.21D-01
 E= -30155.9958348968     Delta-E=       -0.976666452385 Rises=F Damp=F
 DIIS: error= 1.61D-02 at cycle   8 NSaved=   8.
 NSaved= 8 IEnMin= 8 EnMin= -30155.9958348968     IErMin= 8 ErrMin= 1.61D-02
 ErrMax= 1.61D-02  0.00D+00 EMaxC= 1.00D-01 BMatC= 1.01D-01 BMatP= 6.95D-01
 IDIUse=3 WtCom= 8.39D-01 WtEn= 1.61D-01
 Coeff-Com: -0.925D-01 0.108D+00 0.494D-02 0.669D-01-0.508D-01 0.138D+00
 Coeff-Com:  0.162D+00 0.664D+00
 Coeff-En:   0.000D+00 0.000D+00 0.000D+00 0.000D+00 0.000D+00 0.000D+00
 Coeff-En:   0.701D-01 0.930D+00
 Coeff:     -0.776D-01 0.906D-01 0.414D-02 0.561D-01-0.426D-01 0.116D+00
 Coeff:      0.147D+00 0.707D+00
 Gap=     0.056 Goal=   None    Shift=    0.000
 RMSDP=4.66D-04 MaxDP=4.21D-02 DE=-9.77D-01 OVMax= 1.24D-01

 Cycle   9  Pass 1  IDiag  1:
 RMSU=  3.78D-04    CP:  1.01D+00  1.05D+00  3.40D-01  4.69D-01  1.26D-01
                    CP:  2.86D-01  2.78D-01  1.02D+00
 E= -30156.0208415641     Delta-E=       -0.025006667318 Rises=F Damp=F
 DIIS: error= 8.76D-03 at cycle   9 NSaved=   9.
 NSaved= 9 IEnMin= 9 EnMin= -30156.0208415641     IErMin= 9 ErrMin= 8.76D-03
 ErrMax= 8.76D-03  0.00D+00 EMaxC= 1.00D-01 BMatC= 4.89D-02 BMatP= 1.01D-01
 IDIUse=3 WtCom= 9.12D-01 WtEn= 8.76D-02
 Coeff-Com: -0.666D-01 0.762D-01-0.161D-02 0.796D-02-0.752D-02 0.268D-01
 Coeff-Com:  0.292D-01 0.512D+00 0.423D+00
 Coeff-En:   0.000D+00 0.000D+00 0.000D+00 0.000D+00 0.000D+00 0.000D+00
 Coeff-En:   0.000D+00 0.392D+00 0.608D+00
 Coeff:     -0.608D-01 0.695D-01-0.147D-02 0.726D-02-0.686D-02 0.245D-01
 Coeff:      0.267D-01 0.502D+00 0.439D+00
 Gap=     0.053 Goal=   None    Shift=    0.000
 RMSDP=2.35D-04 MaxDP=2.06D-02 DE=-2.50D-02 OVMax= 6.19D-02

 Cycle  10  Pass 1  IDiag  1:
 RMSU=  1.58D-04    CP:  1.01D+00  1.02D+00  3.32D-01  4.40D-01  1.40D-01
                    CP:  2.88D-01  2.62D-01  1.06D+00  6.61D-01
 E= -30156.0447623859     Delta-E=       -0.023920821848 Rises=F Damp=F
 DIIS: error= 4.10D-03 at cycle  10 NSaved=  10.
 NSaved=10 IEnMin=10 EnMin= -30156.0447623859     IErMin=10 ErrMin= 4.10D-03
 ErrMax= 4.10D-03  0.00D+00 EMaxC= 1.00D-01 BMatC= 4.45D-03 BMatP= 4.89D-02
 IDIUse=3 WtCom= 9.59D-01 WtEn= 4.10D-02
 EnCoef did     4 forward-backward iterations
 Coeff-Com: -0.228D-01 0.262D-01-0.135D-02 0.814D-02-0.441D-02 0.554D-02
 Coeff-Com:  0.425D-02 0.260D+00 0.284D+00 0.440D+00
 Coeff-En:   0.000D+00 0.000D+00 0.000D+00 0.000D+00 0.000D+00 0.000D+00
 Coeff-En:   0.000D+00 0.646D-01 0.975D-01 0.838D+00
 Coeff:     -0.219D-01 0.251D-01-0.129D-02 0.781D-02-0.423D-02 0.532D-02
 Coeff:      0.408D-02 0.252D+00 0.277D+00 0.456D+00
 Gap=     0.056 Goal=   None    Shift=    0.000
 RMSDP=1.40D-04 MaxDP=1.31D-02 DE=-2.39D-02 OVMax= 5.31D-02

 Cycle  11  Pass 1  IDiag  1:
 RMSU=  6.97D-05    CP:  1.01D+00  1.02D+00  3.27D-01  4.53D-01  1.30D-01
                    CP:  2.82D-01  2.63D-01  1.03D+00  6.28D-01  3.46D-01
 E= -30156.0488363584     Delta-E=       -0.004073972435 Rises=F Damp=F
 DIIS: error= 9.85D-04 at cycle  11 NSaved=  11.
 NSaved=11 IEnMin=11 EnMin= -30156.0488363584     IErMin=11 ErrMin= 9.85D-04
 ErrMax= 9.85D-04  0.00D+00 EMaxC= 1.00D-01 BMatC= 4.01D-04 BMatP= 4.45D-03
 IDIUse=3 WtCom= 9.90D-01 WtEn= 9.85D-03
 Coeff-Com: -0.255D-02 0.296D-02 0.187D-03 0.415D-02 0.494D-03-0.178D-02
 Coeff-Com: -0.309D-02 0.941D-01 0.779D-01 0.210D+00 0.618D+00
 Coeff-En:   0.000D+00 0.000D+00 0.000D+00 0.000D+00 0.000D+00 0.000D+00
 Coeff-En:   0.000D+00 0.000D+00 0.000D+00 0.000D+00 0.100D+01
 Coeff:     -0.252D-02 0.294D-02 0.185D-03 0.410D-02 0.489D-03-0.176D-02
 Coeff:     -0.306D-02 0.932D-01 0.772D-01 0.208D+00 0.622D+00
 Gap=     0.055 Goal=   None    Shift=    0.000
 RMSDP=5.23D-05 MaxDP=5.48D-03 DE=-4.07D-03 OVMax= 1.18D-02

 Cycle  12  Pass 1  IDiag  1:
 RMSU=  2.42D-05    CP:  1.01D+00  1.01D+00  3.25D-01  4.54D-01  1.28D-01
                    CP:  2.80D-01  2.58D-01  1.04D+00  6.09D-01  4.95D-01
                    CP:  5.53D-01
 E= -30156.0490915368     Delta-E=       -0.000255178384 Rises=F Damp=F
 DIIS: error= 4.13D-04 at cycle  12 NSaved=  12.
 NSaved=12 IEnMin=12 EnMin= -30156.0490915368     IErMin=12 ErrMin= 4.13D-04
 ErrMax= 4.13D-04  0.00D+00 EMaxC= 1.00D-01 BMatC= 8.73D-05 BMatP= 4.01D-04
 IDIUse=3 WtCom= 9.96D-01 WtEn= 4.13D-03
 Coeff-Com: -0.280D-02 0.325D-02-0.646D-04 0.132D-02-0.508D-04-0.106D-02
 Coeff-Com: -0.916D-03 0.315D-01 0.213D-01 0.815D-01 0.381D+00 0.485D+00
 Coeff-En:   0.000D+00 0.000D+00 0.000D+00 0.000D+00 0.000D+00 0.000D+00
 Coeff-En:   0.000D+00 0.000D+00 0.000D+00 0.000D+00 0.263D+00 0.737D+00
 Coeff:     -0.279D-02 0.324D-02-0.643D-04 0.132D-02-0.506D-04-0.106D-02
 Coeff:     -0.912D-03 0.313D-01 0.212D-01 0.812D-01 0.381D+00 0.486D+00
 Gap=     0.055 Goal=   None    Shift=    0.000
 RMSDP=1.69D-05 MaxDP=9.92D-04 DE=-2.55D-04 OVMax= 4.75D-03

 Cycle  13  Pass 1  IDiag  1:
 RMSU=  5.89D-06    CP:  1.01D+00  1.01D+00  3.26D-01  4.55D-01  1.28D-01
                    CP:  2.81D-01  2.59D-01  1.03D+00  6.12D-01  4.45D-01
                    CP:  6.73D-01  6.98D-01
 E= -30156.0491656319     Delta-E=       -0.000074095122 Rises=F Damp=F
 DIIS: error= 8.18D-05 at cycle  13 NSaved=  13.
 NSaved=13 IEnMin=13 EnMin= -30156.0491656319     IErMin=13 ErrMin= 8.18D-05
 ErrMax= 8.18D-05  0.00D+00 EMaxC= 1.00D-01 BMatC= 3.65D-06 BMatP= 8.73D-05
 IDIUse=1 WtCom= 1.00D+00 WtEn= 0.00D+00
 Coeff-Com: -0.658D-03 0.763D-03-0.424D-04 0.628D-03 0.153D-04-0.475D-03
 Coeff-Com:  0.351D-04 0.128D-01 0.776D-02 0.253D-01 0.150D+00 0.212D+00
 Coeff-Com:  0.592D+00
 Coeff:     -0.658D-03 0.763D-03-0.424D-04 0.628D-03 0.153D-04-0.475D-03
 Coeff:      0.351D-04 0.128D-01 0.776D-02 0.253D-01 0.150D+00 0.212D+00
 Coeff:      0.592D+00
 Gap=     0.055 Goal=   None    Shift=    0.000
 RMSDP=3.75D-06 MaxDP=2.42D-04 DE=-7.41D-05 OVMax= 6.24D-04

 Cycle  14  Pass 1  IDiag  1:
 RMSU=  2.24D-06    CP:  1.01D+00  1.01D+00  3.26D-01  4.54D-01  1.28D-01
                    CP:  2.81D-01  2.59D-01  1.03D+00  6.09D-01  4.45D-01
                    CP:  6.78D-01  6.51D-01  8.66D-01
 E= -30156.0491673920     Delta-E=       -0.000001760098 Rises=F Damp=F
 DIIS: error= 4.12D-05 at cycle  14 NSaved=  14.
 NSaved=14 IEnMin=14 EnMin= -30156.0491673920     IErMin=14 ErrMin= 4.12D-05
 ErrMax= 4.12D-05  0.00D+00 EMaxC= 1.00D-01 BMatC= 6.12D-07 BMatP= 3.65D-06
 IDIUse=1 WtCom= 1.00D+00 WtEn= 0.00D+00
 Coeff-Com: -0.250D-03 0.289D-03-0.304D-04 0.320D-03 0.638D-05-0.264D-03
 Coeff-Com:  0.158D-03 0.587D-02 0.324D-02 0.796D-02 0.644D-01 0.877D-01
 Coeff-Com:  0.375D+00 0.456D+00
 Coeff:     -0.250D-03 0.289D-03-0.304D-04 0.320D-03 0.638D-05-0.264D-03
 Coeff:      0.158D-03 0.587D-02 0.324D-02 0.796D-02 0.644D-01 0.877D-01
 Coeff:      0.375D+00 0.456D+00
 Gap=     0.055 Goal=   None    Shift=    0.000
 RMSDP=1.56D-06 MaxDP=1.21D-04 DE=-1.76D-06 OVMax= 5.14D-04

 Cycle  15  Pass 1  IDiag  1:
 RMSU=  1.17D-06    CP:  1.01D+00  1.01D+00  3.26D-01  4.55D-01  1.28D-01
                    CP:  2.81D-01  2.59D-01  1.03D+00  6.09D-01  4.45D-01
                    CP:  6.77D-01  6.57D-01  8.85D-01  7.39D-01
 E= -30156.0491675135     Delta-E=       -0.000000121479 Rises=F Damp=F
 DIIS: error= 5.49D-05 at cycle  15 NSaved=  15.
 NSaved=15 IEnMin=15 EnMin= -30156.0491675135     IErMin=14 ErrMin= 4.12D-05
 ErrMax= 5.49D-05  0.00D+00 EMaxC= 1.00D-01 BMatC= 5.42D-07 BMatP= 6.12D-07
 IDIUse=1 WtCom= 1.00D+00 WtEn= 0.00D+00
 Coeff-Com: -0.885D-04 0.103D-03-0.212D-04 0.160D-03 0.161D-05-0.156D-03
 Coeff-Com:  0.155D-03 0.245D-02 0.115D-02 0.865D-03 0.248D-01 0.288D-01
 Coeff-Com:  0.207D+00 0.444D+00 0.290D+00
 Coeff:     -0.885D-04 0.103D-03-0.212D-04 0.160D-03 0.161D-05-0.156D-03
 Coeff:      0.155D-03 0.245D-02 0.115D-02 0.865D-03 0.248D-01 0.288D-01
 Coeff:      0.207D+00 0.444D+00 0.290D+00
 Gap=     0.055 Goal=   None    Shift=    0.000
 RMSDP=9.35D-07 MaxDP=7.61D-05 DE=-1.21D-07 OVMax= 3.24D-04

 Cycle  16  Pass 1  IDiag  1:
 RMSU=  4.51D-07    CP:  1.01D+00  1.01D+00  3.26D-01  4.55D-01  1.28D-01
                    CP:  2.81D-01  2.59D-01  1.03D+00  6.09D-01  4.44D-01
                    CP:  6.78D-01  6.60D-01  8.87D-01  7.94D-01  4.36D-01
 E= -30156.0491679432     Delta-E=       -0.000000429740 Rises=F Damp=F
 DIIS: error= 5.85D-06 at cycle  16 NSaved=  16.
 NSaved=16 IEnMin=16 EnMin= -30156.0491679432     IErMin=16 ErrMin= 5.85D-06
 ErrMax= 5.85D-06  0.00D+00 EMaxC= 1.00D-01 BMatC= 1.99D-08 BMatP= 5.42D-07
 IDIUse=1 WtCom= 1.00D+00 WtEn= 0.00D+00
 Coeff-Com:  0.227D-04-0.253D-04-0.502D-05 0.279D-04 0.576D-05-0.524D-04
 Coeff-Com:  0.442D-04-0.144D-04-0.498D-04-0.119D-02 0.809D-03-0.515D-02
 Coeff-Com:  0.813D-02 0.862D-01 0.142D+00 0.770D+00
 Coeff:      0.227D-04-0.253D-04-0.502D-05 0.279D-04 0.576D-05-0.524D-04
 Coeff:      0.442D-04-0.144D-04-0.498D-04-0.119D-02 0.809D-03-0.515D-02
 Coeff:      0.813D-02 0.862D-01 0.142D+00 0.770D+00
 Gap=     0.055 Goal=   None    Shift=    0.000
 RMSDP=3.05D-07 MaxDP=2.48D-05 DE=-4.30D-07 OVMax= 9.73D-05

 Cycle  17  Pass 1  IDiag  1:
 RMSU=  1.24D-07    CP:  1.01D+00  1.01D+00  3.26D-01  4.55D-01  1.28D-01
                    CP:  2.80D-01  2.59D-01  1.03D+00  6.09D-01  4.43D-01
                    CP:  6.80D-01  6.58D-01  8.91D-01  7.96D-01  5.01D-01
                    CP:  9.68D-01
 E= -30156.0491679575     Delta-E=       -0.000000014261 Rises=F Damp=F
 DIIS: error= 3.04D-06 at cycle  17 NSaved=  17.
 NSaved=17 IEnMin=17 EnMin= -30156.0491679575     IErMin=17 ErrMin= 3.04D-06
 ErrMax= 3.04D-06  0.00D+00 EMaxC= 1.00D-01 BMatC= 2.15D-09 BMatP= 1.99D-08
 IDIUse=1 WtCom= 1.00D+00 WtEn= 0.00D+00
 Coeff-Com:  0.914D-06-0.113D-05-0.694D-06-0.761D-05 0.174D-06-0.462D-05
 Coeff-Com:  0.213D-04-0.149D-03-0.202D-04-0.112D-03-0.807D-03-0.142D-02
 Coeff-Com: -0.251D-01-0.269D-01 0.158D-01 0.288D+00 0.751D+00
 Coeff:      0.914D-06-0.113D-05-0.694D-06-0.761D-05 0.174D-06-0.462D-05
 Coeff:      0.213D-04-0.149D-03-0.202D-04-0.112D-03-0.807D-03-0.142D-02
 Coeff:     -0.251D-01-0.269D-01 0.158D-01 0.288D+00 0.751D+00
 Gap=     0.055 Goal=   None    Shift=    0.000
 RMSDP=9.71D-08 MaxDP=9.77D-06 DE=-1.43D-08 OVMax= 1.34D-05

 Cycle  18  Pass 1  IDiag  1:
 RMSU=  5.52D-08    CP:  1.01D+00  1.01D+00  3.26D-01  4.55D-01  1.28D-01
                    CP:  2.80D-01  2.59D-01  1.03D+00  6.09D-01  4.43D-01
                    CP:  6.79D-01  6.58D-01  8.90D-01  8.12D-01  5.24D-01
                    CP:  1.05D+00  7.83D-01
 E= -30156.0491679597     Delta-E=       -0.000000002212 Rises=F Damp=F
 DIIS: error= 9.53D-07 at cycle  18 NSaved=  18.
 NSaved=18 IEnMin=18 EnMin= -30156.0491679597     IErMin=18 ErrMin= 9.53D-07
 ErrMax= 9.53D-07  0.00D+00 EMaxC= 1.00D-01 BMatC= 5.12D-10 BMatP= 2.15D-09
 IDIUse=1 WtCom= 1.00D+00 WtEn= 0.00D+00
 Coeff-Com: -0.205D-05 0.227D-05-0.105D-07-0.704D-05-0.203D-06 0.204D-06
 Coeff-Com:  0.922D-05-0.929D-04 0.717D-05 0.135D-03-0.347D-03-0.287D-03
 Coeff-Com: -0.174D-01-0.239D-01-0.111D-02 0.117D+00 0.425D+00 0.501D+00
 Coeff:     -0.205D-05 0.227D-05-0.105D-07-0.704D-05-0.203D-06 0.204D-06
 Coeff:      0.922D-05-0.929D-04 0.717D-05 0.135D-03-0.347D-03-0.287D-03
 Coeff:     -0.174D-01-0.239D-01-0.111D-02 0.117D+00 0.425D+00 0.501D+00
 Gap=     0.055 Goal=   None    Shift=    0.000
 RMSDP=5.70D-08 MaxDP=3.71D-06 DE=-2.21D-09 OVMax= 1.21D-05

 Cycle  19  Pass 1  IDiag  1:
 RMSU=  3.09D-08    CP:  1.01D+00  1.01D+00  3.26D-01  4.55D-01  1.28D-01
                    CP:  2.80D-01  2.59D-01  1.03D+00  6.09D-01  4.43D-01
                    CP:  6.79D-01  6.58D-01  8.89D-01  8.16D-01  5.28D-01
                    CP:  1.06D+00  9.30D-01  3.01D-01
 E= -30156.0491679589     Delta-E=        0.000000000742 Rises=F Damp=F
 DIIS: error= 4.88D-07 at cycle  19 NSaved=  19.
 NSaved=19 IEnMin=18 EnMin= -30156.0491679597     IErMin=19 ErrMin= 4.88D-07
 ErrMax= 4.88D-07  0.00D+00 EMaxC= 1.00D-01 BMatC= 1.56D-10 BMatP= 5.12D-10
 IDIUse=1 WtCom= 1.00D+00 WtEn= 0.00D+00
 Coeff-Com: -0.161D-05 0.181D-05 0.181D-06-0.340D-05-0.145D-06 0.855D-06
 Coeff-Com:  0.122D-05-0.351D-04 0.162D-04 0.178D-03 0.560D-04 0.188D-03
 Coeff-Com: -0.702D-02-0.111D-01-0.432D-02 0.183D-01 0.118D+00 0.389D+00
 Coeff-Com:  0.498D+00
 Coeff:     -0.161D-05 0.181D-05 0.181D-06-0.340D-05-0.145D-06 0.855D-06
 Coeff:      0.122D-05-0.351D-04 0.162D-04 0.178D-03 0.560D-04 0.188D-03
 Coeff:     -0.702D-02-0.111D-01-0.432D-02 0.183D-01 0.118D+00 0.389D+00
 Coeff:      0.498D+00
 Gap=     0.055 Goal=   None    Shift=    0.000
 RMSDP=2.64D-08 MaxDP=1.75D-06 DE= 7.42D-10 OVMax= 5.26D-06

 Cycle  20  Pass 1  IDiag  1:
 RMSU=  6.28D-09    CP:  1.01D+00  1.01D+00  3.26D-01  4.55D-01  1.28D-01
                    CP:  2.80D-01  2.59D-01  1.03D+00  6.09D-01  4.43D-01
                    CP:  6.79D-01  6.57D-01  8.89D-01  8.17D-01  5.30D-01
                    CP:  1.07D+00  9.13D-01  6.39D-01  6.19D-01
 E= -30156.0491679606     Delta-E=       -0.000000001703 Rises=F Damp=F
 DIIS: error= 1.07D-07 at cycle  20 NSaved=  20.
 NSaved=20 IEnMin=20 EnMin= -30156.0491679606     IErMin=20 ErrMin= 1.07D-07
 ErrMax= 1.07D-07  0.00D+00 EMaxC= 1.00D-01 BMatC= 4.90D-12 BMatP= 1.56D-10
 IDIUse=1 WtCom= 1.00D+00 WtEn= 0.00D+00
 Coeff-Com: -0.305D-06 0.338D-06 0.441D-07-0.775D-06-0.123D-06 0.366D-06
 Coeff-Com:  0.902D-07-0.601D-05 0.715D-05 0.639D-04 0.106D-03 0.144D-03
 Coeff-Com: -0.109D-02-0.211D-02-0.113D-02 0.833D-03 0.144D-01 0.113D+00
 Coeff-Com:  0.200D+00 0.676D+00
 Coeff:     -0.305D-06 0.338D-06 0.441D-07-0.775D-06-0.123D-06 0.366D-06
 Coeff:      0.902D-07-0.601D-05 0.715D-05 0.639D-04 0.106D-03 0.144D-03
 Coeff:     -0.109D-02-0.211D-02-0.113D-02 0.833D-03 0.144D-01 0.113D+00
 Coeff:      0.200D+00 0.676D+00
 Gap=     0.055 Goal=   None    Shift=    0.000
 RMSDP=3.81D-09 MaxDP=3.79D-07 DE=-1.70D-09 OVMax= 5.98D-07

 Error on total polarization charges =  0.03762
 SCF Done:  E(RPBE-PBE) =  -30156.0491680     A.U. after   20 cycles
            NFock= 20  Conv=0.38D-08     -V/T= 2.0119
 KE= 2.980244579262D+04 PE=-8.274494994371D+04 EE= 1.728278737667D+04
 Leave Link  502 at Sat Oct 30 04:31:27 2021, MaxMem=  2013265920 cpu:      3053.5
 (Enter /scr/programas/g09/l801.exe)
 Range of M.O.s used for correlation:     1   553
 NBasis=   553 NAE=   139 NBE=   139 NFC=     0 NFV=     0
 NROrb=    553 NOA=   139 NOB=   139 NVA=   414 NVB=   414

 **** Warning!!: The largest alpha MO coefficient is  0.26393709D+02


 **** Warning!!: The smallest alpha delta epsilon is  0.55025332D-01

 Leave Link  801 at Sat Oct 30 04:31:27 2021, MaxMem=  2013265920 cpu:         0.1
 (Enter /scr/programas/g09/l1002.exe)
 Minotr:  Closed shell wavefunction.
 NEqPCM:  Using equilibrium solvation (IEInf=0, Eps=  78.3553, EpsInf=   1.7778)
          Direct CPHF calculation.
          Differentiating once with respect to magnetic field using GIAOs.
          Electric field/nuclear overlap derivatives assumed to be zero.
          Requested convergence is 1.0D-08 RMS, and 1.0D-07 maximum.
          Secondary convergence is 1.0D-12 RMS, and 1.0D-12 maximum.
          NewPWx=T KeepS1=F KeepF1=F KeepIn=T MapXYZ=F SortEE=F KeepMc=T.
          MDV=    2013265291 using IRadAn=       2.
 Defaulting to unpruned grid for atomic number  78.
 Generate precomputed XC quadrature information.
          Solving linear equations simultaneously, MaxMat=       0.
 FoFJK:  IHMeth= 1 ICntrl=    6127 DoSepK=F KAlg= 0 I1Cent=   0 FoldK=F
 IRaf=         1 NMat=   1 IRICut=       1 DoRegI=T DoRafI=F ISym2E= 0.
 Defaulting to unpruned grid for atomic number  78.
 Defaulting to unpruned grid for atomic number  78.
 Defaulting to unpruned grid for atomic number  78.
 Defaulting to unpruned grid for atomic number  78.
          There are     3 degrees of freedom in the 1st order CPHF.  IDoFFX=0 NUNeed=     3.
      3 vectors produced by pass  0 Test12= 1.92D-12 3.33D-08 XBig12= 3.56D+01 3.55D+00.
 AX will form     3 AO Fock derivatives at one time.
 InvSVY:  IOpt=1 It=  1 EMax= 0.00D+00
 Solved reduced A of dimension     3 with     3 vectors.
 Calculating GIAO nuclear magnetic shielding tensors.
 SCF GIAO Magnetic shielding tensor (ppm):
      1  Pt   Isotropic =   411.5360   Anisotropy =  1571.4889
   XX=  -357.9616   YX=    10.8515   ZX=    -0.4181
   XY=     5.8140   YY=   133.3744   ZY=    -0.1291
   XZ=    -0.6807   YZ=    -0.1051   ZZ=  1459.1951
   Eigenvalues:  -358.1030   133.5156  1459.1952
      2  Br   Isotropic =  1491.3654   Anisotropy =  2168.9131
   XX=  1597.3965   YX= -1251.2680   ZX=  -145.2707
   XY= -1346.7426   YY=  1677.9580   ZY=  -255.9835
   XZ=  -167.7858   YZ=   -44.8314   ZZ=  1198.7417
   Eigenvalues:   286.3976  1250.3911  2937.3075
      3  Br   Isotropic =  2308.7987   Anisotropy =   916.6057
   XX=  2003.8284   YX=    -5.9536   ZX=    -0.0995
   XY=    -8.3798   YY=  2002.6986   ZY=     0.0512
   XZ=    -0.0143   YZ=     0.0072   ZZ=  2919.8692
   Eigenvalues:  1996.0746  2010.4524  2919.8692
      4  Br   Isotropic =  1482.8041   Anisotropy =  2181.1754
   XX=  1703.2795   YX=  1258.6703   ZX=  -135.1014
   XY=  1357.3027   YY=  1550.1074   ZY=   267.3561
   XZ=  -168.5783   YZ=    51.2135   ZZ=  1195.0254
   Eigenvalues:   264.4295  1247.0618  2936.9210
      5  Br   Isotropic =  1482.9835   Anisotropy =  2180.9005
   XX=  1703.7426   YX=  1258.4709   ZX=   135.2313
   XY=  1357.2996   YY=  1549.7918   ZY=  -266.8740
   XZ=   168.7574   YZ=   -50.7132   ZZ=  1195.4162
   Eigenvalues:   264.7068  1247.3266  2936.9172
      6  N    Isotropic =  -182.6313   Anisotropy =   258.8175
   XX=  -311.2775   YX=     4.7688   ZX=    -0.0260
   XY=     4.9461   YY=   -10.1646   ZY=     0.0032
   XZ=    -0.0136   YZ=     0.0058   ZZ=  -226.4517
   Eigenvalues:  -311.3558  -226.4517   -10.0863
      7  O    Isotropic =  -402.6516   Anisotropy =   414.7444
   XX=  -686.0534   YX=     8.9147   ZX=   -77.1141
   XY=     9.1484   YY=  -126.3010   ZY=     1.1164
   XZ=   127.9562   YZ=    -1.9105   ZZ=  -395.6004
   Eigenvalues:  -688.4066  -393.3928  -126.1553
      8  O    Isotropic =  -402.6238   Anisotropy =   414.7265
   XX=  -685.9756   YX=     8.9166   ZX=    76.9637
   XY=     9.1731   YY=  -126.2856   ZY=    -1.0890
   XZ=  -128.0539   YZ=     1.9210   ZZ=  -395.6103
   Eigenvalues:  -688.3514  -393.3806  -126.1395
      9  Br   Isotropic =  1491.2850   Anisotropy =  2168.9932
   XX=  1597.0954   YX= -1251.3756   ZX=   145.1592
   XY= -1346.8775   YY=  1677.9530   ZY=   255.5450
   XZ=   167.7143   YZ=    44.4525   ZZ=  1198.8065
   Eigenvalues:   286.2947  1250.2798  2937.2805
 End of Minotr F.D. properties file   721 does not exist.
 End of Minotr F.D. properties file   722 does not exist.
 End of Minotr F.D. properties file   788 does not exist.
 Leave Link 1002 at Sat Oct 30 04:40:23 2021, MaxMem=  2013265920 cpu:      2132.3
 (Enter /scr/programas/g09/l601.exe)
 Copying SCF densities to generalized density rwf, IOpCl= 0 IROHF=0.

 **********************************************************************

            Population analysis using the SCF density.

 **********************************************************************

 Orbital symmetries:
       Occupied  (A) (A) (A) (A) (A) (A) (A) (A) (A) (A) (A) (A)
                 (A) (A) (A) (A) (A) (A) (A) (A) (A) (A) (A) (A)
                 (A) (A) (A) (A) (A) (A) (A) (A) (A) (A) (A) (A)
                 (A) (A) (A) (A) (A) (A) (A) (A) (A) (A) (A) (A)
                 (A) (A) (A) (A) (A) (A) (A) (A) (A) (A) (A) (A)
                 (A) (A) (A) (A) (A) (A) (A) (A) (A) (A) (A) (A)
                 (A) (A) (A) (A) (A) (A) (A) (A) (A) (A) (A) (A)
                 (A) (A) (A) (A) (A) (A) (A) (A) (A) (A) (A) (A)
                 (A) (A) (A) (A) (A) (A) (A) (A) (A) (A) (A) (A)
                 (A) (A) (A) (A) (A) (A) (A) (A) (A) (A) (A) (A)
                 (A) (A) (A) (A) (A) (A) (A) (A) (A) (A) (A) (A)
                 (A) (A) (A) (A) (A) (A) (A)
       Virtual   (A) (A) (A) (A) (A) (A) (A) (A) (A) (A) (A) (A)
                 (A) (A) (A) (A) (A) (A) (A) (A) (A) (A) (A) (A)
                 (A) (A) (A) (A) (A) (A) (A) (A) (A) (A) (A) (A)
                 (A) (A) (A) (A) (A) (A) (A) (A) (A) (A) (A) (A)
                 (A) (A) (A) (A) (A) (A) (A) (A) (A) (A) (A) (A)
                 (A) (A) (A) (A) (A) (A) (A) (A) (A) (A) (A) (A)
                 (A) (A) (A) (A) (A) (A) (A) (A) (A) (A) (A) (A)
                 (A) (A) (A) (A) (A) (A) (A) (A) (A) (A) (A) (A)
                 (A) (A) (A) (A) (A) (A) (A) (A) (A) (A) (A) (A)
                 (A) (A) (A) (A) (A) (A) (A) (A) (A) (A) (A) (A)
                 (A) (A) (A) (A) (A) (A) (A) (A) (A) (A) (A) (A)
                 (A) (A) (A) (A) (A) (A) (A) (A) (A) (A) (A) (A)
                 (A) (A) (A) (A) (A) (A) (A) (A) (A) (A) (A) (A)
                 (A) (A) (A) (A) (A) (A) (A) (A) (A) (A) (A) (A)
                 (A) (A) (A) (A) (A) (A) (A) (A) (A) (A) (A) (A)
                 (A) (A) (A) (A) (A) (A) (A) (A) (A) (A) (A) (A)
                 (A) (A) (A) (A) (A) (A) (A) (A) (A) (A) (A) (A)
                 (A) (A) (A) (A) (A) (A) (A) (A) (A) (A) (A) (A)
                 (A) (A) (A) (A) (A) (A) (A) (A) (A) (A) (A) (A)
                 (A) (A) (A) (A) (A) (A) (A) (A) (A) (A) (A) (A)
                 (A) (A) (A) (A) (A) (A) (A) (A) (A) (A) (A) (A)
                 (A) (A) (A) (A) (A) (A) (A) (A) (A) (A) (A) (A)
                 (A) (A) (A) (A) (A) (A) (A) (A) (A) (A) (A) (A)
                 (A) (A) (A) (A) (A) (A) (A) (A) (A) (A) (A) (A)
                 (A) (A) (A) (A) (A) (A) (A) (A) (A) (A) (A) (A)
                 (A) (A) (A) (A) (A) (A) (A) (A) (A) (A) (A) (A)
                 (A) (A) (A) (A) (A) (A) (A) (A) (A) (A) (A) (A)
                 (A) (A) (A) (A) (A) (A) (A) (A) (A) (A) (A) (A)
                 (A) (A) (A) (A) (A) (A) (A) (A) (A) (A) (A) (A)
                 (A) (A) (A) (A) (A) (A) (A) (A) (A) (A) (A) (A)
                 (A) (A) (A) (A) (A) (A) (A) (A) (A) (A) (A) (A)
                 (A) (A) (A) (A) (A) (A) (A) (A) (A) (A) (A) (A)
                 (A) (A) (A) (A) (A) (A) (A) (A) (A) (A) (A) (A)
                 (A) (A) (A) (A) (A) (A) (A) (A) (A) (A) (A) (A)
                 (A) (A) (A) (A) (A) (A)
 The electronic state is 1-A.
 Alpha  occ. eigenvalues -- **********-478.58519-478.58519-478.58516-478.58515
 Alpha  occ. eigenvalues -- -478.57490-427.60167-414.93074-414.93073-414.93067
 Alpha  occ. eigenvalues --  -99.98180 -92.13844 -92.13838 -92.13825 -79.09773
 Alpha  occ. eigenvalues --  -79.09768 -79.09630 -79.09614 -79.09611 -61.50345
 Alpha  occ. eigenvalues --  -61.50345 -61.50342 -61.50341 -61.49323 -55.68843
 Alpha  occ. eigenvalues --  -55.68843 -55.68840 -55.68839 -55.68529 -55.68529
 Alpha  occ. eigenvalues --  -55.68525 -55.68525 -55.68525 -55.68525 -55.68522
 Alpha  occ. eigenvalues --  -55.68521 -55.67786 -55.67521 -55.67520 -20.89618
 Alpha  occ. eigenvalues --  -18.79519 -18.79519 -17.46070 -17.46057 -17.46034
 Alpha  occ. eigenvalues --  -14.19084 -11.64522 -11.64514 -11.64009 -11.63963
 Alpha  occ. eigenvalues --  -11.63954  -8.33186  -8.33186  -8.33182  -8.33181
 Alpha  occ. eigenvalues --   -8.32164  -6.24098  -6.24098  -6.24095  -6.24094
 Alpha  occ. eigenvalues --   -6.23188  -6.23188  -6.23185  -6.23184  -6.23178
 Alpha  occ. eigenvalues --   -6.23178  -6.23174  -6.23174  -6.22980  -6.22211
 Alpha  occ. eigenvalues --   -6.22210  -3.19322  -3.19318  -3.19296  -3.19027
 Alpha  occ. eigenvalues --   -3.19012  -3.19002  -3.18634  -2.92271  -2.45017
 Alpha  occ. eigenvalues --   -2.45016  -2.45013  -2.45012  -2.44790  -2.44790
 Alpha  occ. eigenvalues --   -2.44786  -2.44786  -2.44782  -2.44782  -2.44779
 Alpha  occ. eigenvalues --   -2.44778  -2.44114  -2.44114  -2.44113  -2.44113
 Alpha  occ. eigenvalues --   -2.44110  -2.44109  -2.44109  -2.44108  -2.43925
 Alpha  occ. eigenvalues --   -2.43730  -2.43729  -2.43164  -2.43163  -1.86214
 Alpha  occ. eigenvalues --   -1.86183  -1.86117  -1.13781  -0.97498  -0.66988
 Alpha  occ. eigenvalues --   -0.65639  -0.65635  -0.65544  -0.64809  -0.58281
 Alpha  occ. eigenvalues --   -0.48467  -0.47597  -0.46369  -0.36718  -0.35190
 Alpha  occ. eigenvalues --   -0.33883  -0.33363  -0.32854  -0.30604  -0.28812
 Alpha  occ. eigenvalues --   -0.28098  -0.27686  -0.24601  -0.24582  -0.23010
 Alpha  occ. eigenvalues --   -0.22928  -0.22838  -0.22814  -0.22777  -0.22663
 Alpha  occ. eigenvalues --   -0.22310  -0.21256  -0.21072  -0.20935
 Alpha virt. eigenvalues --   -0.15432  -0.13894  -0.09511  -0.00823   0.00406
 Alpha virt. eigenvalues --    0.00479   0.01019   0.02530   0.02682   0.02864
 Alpha virt. eigenvalues --    0.02884   0.02978   0.04721   0.04739   0.05257
 Alpha virt. eigenvalues --    0.05433   0.05610   0.05681   0.07527   0.07943
 Alpha virt. eigenvalues --    0.08829   0.09047   0.09193   0.09230   0.09936
 Alpha virt. eigenvalues --    0.10461   0.10951   0.11555   0.15227   0.15344
 Alpha virt. eigenvalues --    0.15444   0.17118   0.17354   0.17392   0.17482
 Alpha virt. eigenvalues --    0.17671   0.17986   0.18137   0.20052   0.20447
 Alpha virt. eigenvalues --    0.20895   0.20917   0.21170   0.22551   0.22594
 Alpha virt. eigenvalues --    0.22907   0.23810   0.24470   0.25152   0.25879
 Alpha virt. eigenvalues --    0.26097   0.26938   0.27384   0.27668   0.29823
 Alpha virt. eigenvalues --    0.32043   0.32887   0.33158   0.36993   0.38638
 Alpha virt. eigenvalues --    0.39241   0.41230   0.41507   0.45856   0.46598
 Alpha virt. eigenvalues --    0.47159   0.48527   0.48574   0.53623   0.56958
 Alpha virt. eigenvalues --    0.59065   0.60539   0.60571   0.63075   0.64396
 Alpha virt. eigenvalues --    0.65420   0.68645   0.70204   0.71832   0.73264
 Alpha virt. eigenvalues --    0.73478   0.73549   0.75297   0.76449   0.79130
 Alpha virt. eigenvalues --    0.79609   0.79822   0.80331   0.81217   0.81420
 Alpha virt. eigenvalues --    0.81695   0.82256   0.85857   0.86754   0.86921
 Alpha virt. eigenvalues --    0.87135   0.87817   0.88483   0.89178   0.90257
 Alpha virt. eigenvalues --    0.91139   0.91745   0.91869   0.92486   0.92609
 Alpha virt. eigenvalues --    0.92853   0.93322   0.93669   0.93871   0.94881
 Alpha virt. eigenvalues --    0.94926   0.95184   0.95367   0.96202   0.97507
 Alpha virt. eigenvalues --    0.97788   0.98176   0.98872   1.00899   1.03375
 Alpha virt. eigenvalues --    1.03755   1.03980   1.06478   1.09211   1.09556
 Alpha virt. eigenvalues --    1.11484   1.12408   1.13063   1.13848   1.14677
 Alpha virt. eigenvalues --    1.15724   1.15772   1.16878   1.17577   1.19839
 Alpha virt. eigenvalues --    1.20450   1.20727   1.21911   1.22000   1.22606
 Alpha virt. eigenvalues --    1.23112   1.23140   1.23220   1.23464   1.23723
 Alpha virt. eigenvalues --    1.24668   1.24991   1.25324   1.25852   1.26201
 Alpha virt. eigenvalues --    1.26438   1.27642   1.28501   1.28695   1.30200
 Alpha virt. eigenvalues --    1.30602   1.32078   1.33683   1.34835   1.37583
 Alpha virt. eigenvalues --    1.37758   1.37882   1.38133   1.38248   1.41792
 Alpha virt. eigenvalues --    1.42397   1.43024   1.44514   1.44586   1.46240
 Alpha virt. eigenvalues --    1.47996   1.50090   1.51054   1.53063   1.54395
 Alpha virt. eigenvalues --    1.55053   1.61635   1.64990   1.68609   1.69457
 Alpha virt. eigenvalues --    1.69867   1.72377   1.72789   1.73414   1.85509
 Alpha virt. eigenvalues --    1.90321   1.91064   1.92694   1.96819   2.34872
 Alpha virt. eigenvalues --    2.38797   2.40820   2.48071   2.51669   2.53464
 Alpha virt. eigenvalues --    2.58240   2.61436   2.65634   2.69184   2.69451
 Alpha virt. eigenvalues --    2.71831   2.71993   2.75648   2.92753   3.02387
 Alpha virt. eigenvalues --    3.04435   3.10036   3.11576   3.11711   3.13373
 Alpha virt. eigenvalues --    3.13437   3.14208   3.15612   3.17384   3.18381
 Alpha virt. eigenvalues --    3.19375   3.21827   3.25464   3.28341   3.31238
 Alpha virt. eigenvalues --    3.42364   3.43412   3.56017   3.67895   3.74023
 Alpha virt. eigenvalues --    3.74626   3.74851   3.78971   3.79335   3.79926
 Alpha virt. eigenvalues --    3.94283   3.96813   4.02815   4.04350   4.05142
 Alpha virt. eigenvalues --    4.05279   4.05823   4.06366   4.07249   4.07264
 Alpha virt. eigenvalues --    4.08864   4.09671   4.12903   4.18376   4.23679
 Alpha virt. eigenvalues --    4.24612   4.25350   4.28940   4.30383   4.30417
 Alpha virt. eigenvalues --    4.30948   4.31000   4.31026   4.31537   4.31641
 Alpha virt. eigenvalues --    4.31662   4.31742   4.31810   4.32127   4.32202
 Alpha virt. eigenvalues --    4.33005   4.33193   4.33633   4.34161   4.34188
 Alpha virt. eigenvalues --    4.35378   4.36474   4.36535   4.36562   4.36586
 Alpha virt. eigenvalues --    4.37370   4.37726   4.39197   4.39459   4.39954
 Alpha virt. eigenvalues --    4.41024   4.41704   4.42731   4.43764   4.44631
 Alpha virt. eigenvalues --    4.45619   4.47031   4.48645   4.50259   4.51598
 Alpha virt. eigenvalues --    5.38397   5.62176   5.64748   5.71089   5.88065
 Alpha virt. eigenvalues --    5.88815   5.88959   5.89309   5.89457   5.89462
 Alpha virt. eigenvalues --    5.89566   5.89596   5.90094   5.91244   5.99449
 Alpha virt. eigenvalues --    6.03343   6.03415   6.03531   6.04033   6.04525
 Alpha virt. eigenvalues --    6.07167   6.08754   6.09426   6.10398   6.19401
 Alpha virt. eigenvalues --    6.26819   6.27352   6.32599   6.36214   6.84279
 Alpha virt. eigenvalues --    6.97877   8.42305   8.42572   8.43476   8.44052
 Alpha virt. eigenvalues --    8.44888   8.46757   8.47071   8.47954   8.55602
 Alpha virt. eigenvalues --    8.78631   9.73921   9.74174   9.77467   9.95193
 Alpha virt. eigenvalues --   10.01466  13.99384  14.06949  14.08957  14.09989
 Alpha virt. eigenvalues --   14.12446  20.27720  20.28401  20.28995  20.29544
 Alpha virt. eigenvalues --   20.29741  20.29810  20.30069  20.30845  20.31260
 Alpha virt. eigenvalues --   20.31941  20.33957  20.35153  20.37893  20.39070
 Alpha virt. eigenvalues --   20.42070  20.87641  20.89520  20.93342  22.96254
 Alpha virt. eigenvalues --   25.86791  30.14378  30.26650  42.80789  42.80993
 Alpha virt. eigenvalues --   42.82962  42.94092  42.97474  65.05928  65.12050
 Alpha virt. eigenvalues --   65.13871  65.14876  65.16853  81.91621  86.01544
 Alpha virt. eigenvalues --   86.03173  86.06302 112.72711 112.73216 112.73505
 Alpha virt. eigenvalues --  112.73967 112.74186 112.74202 112.74392 112.75081
 Alpha virt. eigenvalues --  112.75363 112.75495 112.77546 112.77996 112.79834
 Alpha virt. eigenvalues --  112.80766 112.82595 123.10465 162.90202 163.03295
 Alpha virt. eigenvalues --  257.04017 282.41179 282.46272 282.47933 282.48763
 Alpha virt. eigenvalues --  282.50415 428.63474 428.64744 428.67124 772.73374
 Alpha virt. eigenvalues -- 1043.584551043.628161043.643521043.649931043.66416
 Alpha virt. eigenvalues -- 2068.349125495.163355634.434395634.493215634.51129
 Alpha virt. eigenvalues -- 5634.522265634.54111********************
          Condensed to atoms (all electrons):
               1          2          3          4          5          6
     1  Pt  77.650406   0.089639   0.108136   0.089787   0.089771   0.018439
     2  Br   0.089639  35.359946  -0.041563  -0.021066  -0.039428  -0.014495
     3  Br   0.108136  -0.041563  35.452564  -0.041554  -0.041576  -0.012912
     4  Br   0.089787  -0.021066  -0.041554  35.360017  -0.009356  -0.014768
     5  Br   0.089771  -0.039428  -0.041576  -0.009356  35.359991  -0.014761
     6  N    0.018439  -0.014495  -0.012912  -0.014768  -0.014761   5.826384
     7  O    0.054061  -0.021241   0.000967  -0.021479  -0.000614   0.634101
     8  O    0.054075  -0.000637   0.000966  -0.000613  -0.021480   0.634101
     9  Br   0.089650  -0.009366  -0.041573  -0.039437  -0.021084  -0.014484
               7          8          9
     1  Pt   0.054061   0.054075   0.089650
     2  Br  -0.021241  -0.000637  -0.009366
     3  Br   0.000967   0.000966  -0.041573
     4  Br  -0.021479  -0.000613  -0.039437
     5  Br  -0.000614  -0.021480  -0.021084
     6  N    0.634101   0.634101  -0.014484
     7  O    7.490080  -0.073054  -0.000638
     8  O   -0.073054   7.490104  -0.021235
     9  Br  -0.000638  -0.021235  35.359953
 Mulliken charges:
               1
     1  Pt  -0.243964
     2  Br  -0.301789
     3  Br  -0.383455
     4  Br  -0.301529
     5  Br  -0.301462
     6  N   -0.041605
     7  O   -0.062183
     8  O   -0.062227
     9  Br  -0.301786
 Sum of Mulliken charges =  -2.00000
 Mulliken charges with hydrogens summed into heavy atoms:
               1
     1  Pt  -0.243964
     2  Br  -0.301789
     3  Br  -0.383455
     4  Br  -0.301529
     5  Br  -0.301462
     6  N   -0.041605
     7  O   -0.062183
     8  O   -0.062227
     9  Br  -0.301786
 Electronic spatial extent (au):  <R**2>=           5034.2707
 Charge=             -2.0000 electrons
 Dipole moment (field-independent basis, Debye):
    X=             -0.0002    Y=             -0.0004    Z=             -0.8699  Tot=              0.8699
 Quadrupole moment (field-independent basis, Debye-Ang):
   XX=           -173.2441   YY=           -169.8500   ZZ=           -173.6718
   XY=              0.0474   XZ=              0.0004   YZ=              0.0004
 Traceless Quadrupole moment (field-independent basis, Debye-Ang):
   XX=             -0.9888   YY=              2.4053   ZZ=             -1.4165
   XY=              0.0474   XZ=              0.0004   YZ=              0.0004
 Octapole moment (field-independent basis, Debye-Ang**2):
  XXX=             -0.0124  YYY=             -0.0055  ZZZ=             28.4761  XYY=             -0.0044
  XXY=             -0.0036  XXZ=             16.1116  XZZ=             -0.0008  YZZ=             -0.0002
  YYZ=              4.9357  XYZ=             -0.2038
 Hexadecapole moment (field-independent basis, Debye-Ang**3):
 XXXX=          -1885.8416 YYYY=          -1849.7246 ZZZZ=          -1839.3339 XXXY=             -1.0488
 XXXZ=              0.0228 YYYX=              1.1551 YYYZ=              0.0015 ZZZX=              0.0302
 ZZZY=              0.0105 XXYY=           -638.9914 XXZZ=           -609.9782 YYZZ=           -573.6037
 XXYZ=              0.0005 YYXZ=             -0.0017 ZZXY=              0.5223
 N-N= 5.503667606465D+03 E-N=-8.274494999077D+04  KE= 2.980244579262D+04
 Calculating spin-rotation constants.
 Leave Link  601 at Sat Oct 30 04:40:27 2021, MaxMem=  2013265920 cpu:         5.9
 (Enter /scr/programas/g09/l9999.exe)
 1\1\GINC-NQTCM04\SP\RPBEPBE\Gen\Br5N1O2Pt1(2-)\DIEGO\30-Oct-2021\0\\#P
 BEPBE/gen scf=maxcycle=200 NMR=GIAO Scrf=(solvent=water)\\estrutura 36
 \\-2,1\Pt,0,-0.000027,-0.000035,0.122473\Br,0,-1.748069,-1.850954,0.11
 4947\Br,0,0.000372,-0.00017,-2.461344\Br,0,-1.828842,1.771516,0.113069
 \Br,0,1.828955,-1.771273,0.113749\N,0,-0.000509,0.000079,2.232388\O,0,
 -1.070857,-0.016931,2.810337\O,0,1.069514,0.017076,2.810956\Br,0,1.748
 053,1.850909,0.115294\\Version=EM64L-G09RevD.01\State=1-A\HF=-30156.04
 9168\RMSD=3.814e-09\Dipole=0.0000932,-0.0001495,0.3422345\Quadrupole=-
 0.7351755,1.7882891,-1.0531136,-0.0352096,0.0003102,-0.0002971\PG=C01 
 [X(Br5N1O2Pt1)]\\@


 ... SUBJECTS WHICH DISCLOSE THEIR FULL POWER, MEANING AND BEAUTY AS SOON
 AS THEY ARE PRESENTED TO THE MIND HAVE VERY LITTLE OF THOSE QUALITIES
 TO DISCLOSE.
                           -- CHARLES DUTTON (1882)
 Job cpu time:       0 days  1 hours 27 minutes 45.1 seconds.
 File lengths (MBytes):  RWF=    227 Int=      0 D2E=      0 Chk=     18 Scr=      1
 Normal termination of Gaussian 09 at Sat Oct 30 04:40:27 2021.
