 Entering Gaussian System, Link 0=g09
 Input=estrutura55freq_LANL2DZ_TZVP.com
 Output=estrutura55freq_LANL2DZ_TZVP.log
 Initial command:
 /scr/programas/g09/l1.exe "/scr/diego/Gau-7085.inp" -scrdir="/scr/diego/"
 Entering Link 1 = /scr/programas/g09/l1.exe PID=      7087.
  
 Copyright (c) 1988,1990,1992,1993,1995,1998,2003,2009,2013,
            Gaussian, Inc.  All Rights Reserved.
  
 This is part of the Gaussian(R) 09 program.  It is based on
 the Gaussian(R) 03 system (copyright 2003, Gaussian, Inc.),
 the Gaussian(R) 98 system (copyright 1998, Gaussian, Inc.),
 the Gaussian(R) 94 system (copyright 1995, Gaussian, Inc.),
 the Gaussian 92(TM) system (copyright 1992, Gaussian, Inc.),
 the Gaussian 90(TM) system (copyright 1990, Gaussian, Inc.),
 the Gaussian 88(TM) system (copyright 1988, Gaussian, Inc.),
 the Gaussian 86(TM) system (copyright 1986, Carnegie Mellon
 University), and the Gaussian 82(TM) system (copyright 1983,
 Carnegie Mellon University). Gaussian is a federally registered
 trademark of Gaussian, Inc.
  
 This software contains proprietary and confidential information,
 including trade secrets, belonging to Gaussian, Inc.
  
 This software is provided under written license and may be
 used, copied, transmitted, or stored only in accord with that
 written license.
  
 The following legend is applicable only to US Government
 contracts under FAR:
  
                    RESTRICTED RIGHTS LEGEND
  
 Use, reproduction and disclosure by the US Government is
 subject to restrictions as set forth in subparagraphs (a)
 and (c) of the Commercial Computer Software - Restricted
 Rights clause in FAR 52.227-19.
  
 Gaussian, Inc.
 340 Quinnipiac St., Bldg. 40, Wallingford CT 06492
  
  
 ---------------------------------------------------------------
 Warning -- This program may not be used in any manner that
 competes with the business of Gaussian, Inc. or will provide
 assistance to any competitor of Gaussian, Inc.  The licensee
 of this program is prohibited from giving any competitor of
 Gaussian, Inc. access to this program.  By using this program,
 the user acknowledges that Gaussian, Inc. is engaged in the
 business of creating and licensing software in the field of
 computational chemistry and represents and warrants to the
 licensee that it is not a competitor of Gaussian, Inc. and that
 it will not use this program in any manner prohibited above.
 ---------------------------------------------------------------
  

 Cite this work as:
 Gaussian 09, Revision D.01,
 M. J. Frisch, G. W. Trucks, H. B. Schlegel, G. E. Scuseria, 
 M. A. Robb, J. R. Cheeseman, G. Scalmani, V. Barone, B. Mennucci, 
 G. A. Petersson, H. Nakatsuji, M. Caricato, X. Li, H. P. Hratchian, 
 A. F. Izmaylov, J. Bloino, G. Zheng, J. L. Sonnenberg, M. Hada, 
 M. Ehara, K. Toyota, R. Fukuda, J. Hasegawa, M. Ishida, T. Nakajima, 
 Y. Honda, O. Kitao, H. Nakai, T. Vreven, J. A. Montgomery, Jr., 
 J. E. Peralta, F. Ogliaro, M. Bearpark, J. J. Heyd, E. Brothers, 
 K. N. Kudin, V. N. Staroverov, T. Keith, R. Kobayashi, J. Normand, 
 K. Raghavachari, A. Rendell, J. C. Burant, S. S. Iyengar, J. Tomasi, 
 M. Cossi, N. Rega, J. M. Millam, M. Klene, J. E. Knox, J. B. Cross, 
 V. Bakken, C. Adamo, J. Jaramillo, R. Gomperts, R. E. Stratmann, 
 O. Yazyev, A. J. Austin, R. Cammi, C. Pomelli, J. W. Ochterski, 
 R. L. Martin, K. Morokuma, V. G. Zakrzewski, G. A. Voth, 
 P. Salvador, J. J. Dannenberg, S. Dapprich, A. D. Daniels, 
 O. Farkas, J. B. Foresman, J. V. Ortiz, J. Cioslowski, 
 and D. J. Fox, Gaussian, Inc., Wallingford CT, 2013.
 
 ******************************************
 Gaussian 09:  EM64L-G09RevD.01 24-Apr-2013
                30-Oct-2021 
 ******************************************
 %mem=15Gb
 %nproc=4
 Will use up to    4 processors via shared memory.
 ----------------------------------------------------------
 #PBEPBE/gen scf=maxcycle=200 NMR=GIAO Scrf=(solvent=water)
 ----------------------------------------------------------
 1/38=1/1;
 2/12=2,17=6,18=5,40=1/2;
 3/5=7,11=2,16=1,25=1,30=1,70=2201,72=1,74=1009/1,2,8,3;
 4//1;
 5/5=2,7=200,38=5,53=1/2;
 8/6=1,10=90,11=11/1;
 10/13=100,45=16/2;
 6/7=2,8=2,9=2,10=2,28=1/1;
 99/9=1/99;
 Leave Link    1 at Sat Oct 30 05:59:23 2021, MaxMem=  2013265920 cpu:         0.2
 (Enter /scr/programas/g09/l101.exe)
 ------------
 estrutura 55
 ------------
 Symbolic Z-matrix:
 Charge = -2 Multiplicity = 1
 Pt                   -0.00482   0.1251    0.01744 
 N                    -0.07046   2.2339    0.19447 
 N                    -0.0527   -0.12357   2.14651 
 O                    -0.69815   2.73063   1.10815 
 O                     0.54062   2.88231  -0.63356 
 O                    -0.97997   0.35429   2.77686 
 O                     0.84408  -0.75729   2.68081 
 Br                    2.53216   0.31193   0.09145 
 Br                   -2.54328  -0.00812  -0.09955 
 Br                    0.09086  -2.44202  -0.2038 
 N                     0.03116   0.33468  -2.1064 
 O                    -0.71985   1.14703  -2.62273 
 O                     0.7919   -0.36142  -2.7578 
 
 NAtoms=     13 NQM=       13 NQMF=       0 NMMI=      0 NMMIF=      0
                NMic=       0 NMicF=      0.
                    Isotopes and Nuclear Properties:
 (Nuclear quadrupole moments (NQMom) in fm**2, nuclear magnetic moments (NMagM)
  in nuclear magnetons)

  Atom         1           2           3           4           5           6           7           8           9          10
 IAtWgt=         195          14          14          16          16          16          16          79          79          79
 AtmWgt= 194.9648000  14.0030740  14.0030740  15.9949146  15.9949146  15.9949146  15.9949146  78.9183361  78.9183361  78.9183361
 NucSpn=           1           2           2           0           0           0           0           3           3           3
 AtZEff=   0.0000000   0.0000000   0.0000000   0.0000000   0.0000000   0.0000000   0.0000000   0.0000000   0.0000000   0.0000000
 NQMom=    0.0000000   2.0440000   2.0440000   0.0000000   0.0000000   0.0000000   0.0000000  31.3000000  31.3000000  31.3000000
 NMagM=    0.6095000   0.4037610   0.4037610   0.0000000   0.0000000   0.0000000   0.0000000   2.1063990   2.1063990   2.1063990
 AtZNuc=  78.0000000   7.0000000   7.0000000   8.0000000   8.0000000   8.0000000   8.0000000  35.0000000  35.0000000  35.0000000

  Atom        11          12          13
 IAtWgt=          14          16          16
 AtmWgt=  14.0030740  15.9949146  15.9949146
 NucSpn=           2           0           0
 AtZEff=   0.0000000   0.0000000   0.0000000
 NQMom=    2.0440000   0.0000000   0.0000000
 NMagM=    0.4037610   0.0000000   0.0000000
 AtZNuc=   7.0000000   8.0000000   8.0000000
 Leave Link  101 at Sat Oct 30 05:59:23 2021, MaxMem=  2013265920 cpu:         0.4
 (Enter /scr/programas/g09/l202.exe)
                          Input orientation:                          
 ---------------------------------------------------------------------
 Center     Atomic      Atomic             Coordinates (Angstroms)
 Number     Number       Type             X           Y           Z
 ---------------------------------------------------------------------
      1         78           0       -0.004820    0.125103    0.017442
      2          7           0       -0.070464    2.233901    0.194472
      3          7           0       -0.052695   -0.123565    2.146512
      4          8           0       -0.698151    2.730625    1.108151
      5          8           0        0.540619    2.882314   -0.633561
      6          8           0       -0.979974    0.354289    2.776857
      7          8           0        0.844082   -0.757289    2.680813
      8         35           0        2.532156    0.311930    0.091448
      9         35           0       -2.543276   -0.008123   -0.099549
     10         35           0        0.090861   -2.442021   -0.203796
     11          7           0        0.031161    0.334676   -2.106404
     12          8           0       -0.719852    1.147030   -2.622725
     13          8           0        0.791897   -0.361421   -2.757802
 ---------------------------------------------------------------------
                    Distance matrix (angstroms):
                    1          2          3          4          5
     1  Pt   0.000000
     2  N    2.117234   0.000000
     3  N    2.144077   3.060788   0.000000
     4  O    2.908453   1.214716   3.105029   0.000000
     5  O    2.885051   1.216347   4.137165   2.142690   0.000000
     6  O    2.935613   3.320973   1.218821   2.917358   4.509331
     7  O    2.931347   3.995686   1.221185   4.125202   4.931924
     8  Br   2.544922   3.237007   3.330826   4.161569   3.331476
     9  Br   2.544640   3.350809   3.355758   3.516215   4.260306
    10  Br   2.578416   4.695625   3.304511   5.394443   5.360553
    11  N    2.134464   2.985199   4.278354   4.075025   2.986515
    12  O    2.919946   3.088623   4.980475   4.053107   2.925196
    13  O    2.928044   4.024337   4.982189   5.169776   3.885532
                    6          7          8          9         10
     6  O    0.000000
     7  O    2.138226   0.000000
     8  Br   4.421343   3.270724   0.000000
     9  Br   3.293777   4.445881   5.089099   0.000000
    10  Br   4.224965   3.424417   3.692064   3.587953   0.000000
    11  N    4.986884   4.977015   3.329572   3.282180   3.366530
    12  O    5.463661   5.848063   4.317370   3.320493   4.403381
    13  O    5.855273   5.453253   3.405896   4.279545   3.367981
                   11         12         13
    11  N    0.000000
    12  O    1.220871   0.000000
    13  O    1.219668   2.139873   0.000000
 Stoichiometry    Br3N3O6Pt(2-)
 Framework group  C1[X(Br3N3O6Pt)]
 Deg. of freedom    33
 Full point group                 C1      NOp   1
 Largest Abelian subgroup         C1      NOp   1
 Largest concise Abelian subgroup C1      NOp   1
                         Standard orientation:                         
 ---------------------------------------------------------------------
 Center     Atomic      Atomic             Coordinates (Angstroms)
 Number     Number       Type             X           Y           Z
 ---------------------------------------------------------------------
      1         78           0        0.004820   -0.125103    0.017442
      2          7           0        0.070463   -2.233901    0.194472
      3          7           0        0.052695    0.123565    2.146512
      4          8           0        0.698150   -2.730625    1.108151
      5          8           0       -0.540620   -2.882314   -0.633561
      6          8           0        0.979974   -0.354289    2.776857
      7          8           0       -0.844082    0.757289    2.680813
      8         35           0       -2.532156   -0.311929    0.091448
      9         35           0        2.543276    0.008122   -0.099549
     10         35           0       -0.090860    2.442021   -0.203796
     11          7           0       -0.031161   -0.334676   -2.106404
     12          8           0        0.719851   -1.147030   -2.622725
     13          8           0       -0.791897    0.361421   -2.757802
 ---------------------------------------------------------------------
 Rotational constants (GHZ):      0.3445103      0.2967947      0.2640338
 Leave Link  202 at Sat Oct 30 05:59:23 2021, MaxMem=  2013265920 cpu:         0.0
 (Enter /scr/programas/g09/l301.exe)
 General basis read from cards:  (5D, 7F)
 Centers:       2      3     11
 S 6 1.00
     Exponent=  1.2238326969D+04 Coefficients=  5.6000000000D-04
     Exponent=  4.0794423230D+03 Coefficients=  7.7000000000D-04
     Exponent=  1.3598141077D+03 Coefficients=  4.0600000000D-03
     Exponent=  4.5327136922D+02 Coefficients=  1.3910000000D-02
     Exponent=  1.5109045641D+02 Coefficients=  5.2990000000D-02
     Exponent=  5.0363485469D+01 Coefficients=  1.6952000000D-01
 S 1 1.00
     Exponent=  1.6787828490D+01 Coefficients=  1.0000000000D+00
 S 1 1.00
     Exponent=  5.5959428299D+00 Coefficients=  1.0000000000D+00
 S 1 1.00
     Exponent=  1.8653142766D+00 Coefficients=  1.0000000000D+00
 S 1 1.00
     Exponent=  6.2177142554D-01 Coefficients=  1.0000000000D+00
 S 1 1.00
     Exponent=  2.0725714185D-01 Coefficients=  1.0000000000D+00
 P 4 1.00
     Exponent=  5.4142548249D+01 Coefficients=  3.9700000000D-03
     Exponent=  1.6659245615D+01 Coefficients=  1.9540000000D-02
     Exponent=  5.1259217277D+00 Coefficients=  9.9790000000D-02
     Exponent=  1.5772066854D+00 Coefficients=  3.2845000000D-01
 P 1 1.00
     Exponent=  4.8529436475D-01 Coefficients=  1.0000000000D+00
 P 1 1.00
     Exponent=  1.4932134300D-01 Coefficients=  1.0000000000D+00
 D 1 1.00
     Exponent=  4.7700000000D-01 Coefficients=  1.0000000000D+00
 D 1 1.00
     Exponent=  1.5026000000D-01 Coefficients=  1.0000000000D+00
 ****
 Centers:       4      5      6      7     12     13
 S 6 1.00
     Exponent=  1.6178118231D+04 Coefficients=  6.0000000000D-04
     Exponent=  5.3927060771D+03 Coefficients=  7.8000000000D-04
     Exponent=  1.7975686924D+03 Coefficients=  4.1000000000D-03
     Exponent=  5.9918956413D+02 Coefficients=  1.3880000000D-02
     Exponent=  1.9972985471D+02 Coefficients=  5.2770000000D-02
     Exponent=  6.6576618236D+01 Coefficients=  1.6924000000D-01
 S 1 1.00
     Exponent=  2.2192206079D+01 Coefficients=  1.0000000000D+00
 S 1 1.00
     Exponent=  7.3974020263D+00 Coefficients=  1.0000000000D+00
 S 1 1.00
     Exponent=  2.4658006754D+00 Coefficients=  1.0000000000D+00
 S 1 1.00
     Exponent=  8.2193355847D-01 Coefficients=  1.0000000000D+00
 S 1 1.00
     Exponent=  2.7397785282D-01 Coefficients=  1.0000000000D+00
 P 4 1.00
     Exponent=  7.3854398670D+01 Coefficients=  4.0200000000D-03
     Exponent=  2.2724430360D+01 Coefficients=  2.0130000000D-02
     Exponent=  6.9921324184D+00 Coefficients=  1.0470000000D-01
     Exponent=  2.1514253595D+00 Coefficients=  3.3605000000D-01
 P 1 1.00
     Exponent=  6.6197703370D-01 Coefficients=  1.0000000000D+00
 P 1 1.00
     Exponent=  2.0368524114D-01 Coefficients=  1.0000000000D+00
 D 1 1.00
     Exponent=  9.2880000000D-01 Coefficients=  1.0000000000D+00
 D 1 1.00
     Exponent=  2.2975000000D-01 Coefficients=  1.0000000000D+00
 ****
 Centers:       8      9     10
 S 7 1.00
     Exponent=  3.4867099512D+05 Coefficients=  2.4100000000D-03
     Exponent=  1.3946839805D+05 Coefficients=  1.2000000000D-04
     Exponent=  5.5787359218D+04 Coefficients=  5.8500000000D-03
     Exponent=  2.2314943687D+04 Coefficients=  8.2100000000D-03
     Exponent=  8.9259774750D+03 Coefficients=  2.4090000000D-02
     Exponent=  3.5703909900D+03 Coefficients=  5.7250000000D-02
     Exponent=  1.4281563960D+03 Coefficients=  1.4467000000D-01
 S 1 1.00
     Exponent=  5.7126255840D+02 Coefficients=  1.0000000000D+00
 S 1 1.00
     Exponent=  2.2850502336D+02 Coefficients=  1.0000000000D+00
 S 1 1.00
     Exponent=  9.1402009344D+01 Coefficients=  1.0000000000D+00
 S 1 1.00
     Exponent=  3.6560803737D+01 Coefficients=  1.0000000000D+00
 S 1 1.00
     Exponent=  1.4624321495D+01 Coefficients=  1.0000000000D+00
 S 1 1.00
     Exponent=  5.8497285980D+00 Coefficients=  1.0000000000D+00
 S 1 1.00
     Exponent=  2.3398914392D+00 Coefficients=  1.0000000000D+00
 S 1 1.00
     Exponent=  9.3595657568D-01 Coefficients=  1.0000000000D+00
 S 1 1.00
     Exponent=  3.7438263027D-01 Coefficients=  1.0000000000D+00
 S 1 1.00
     Exponent=  1.4975305211D-01 Coefficients=  1.0000000000D+00
 S 1 1.00
     Exponent=  5.9901220843D-02 Coefficients=  1.0000000000D+00
 P 5 1.00
     Exponent=  4.2715043612D+03 Coefficients=  2.0900000000D-03
     Exponent=  1.5532743132D+03 Coefficients=  5.5700000000D-03
     Exponent=  5.6482702297D+02 Coefficients=  3.0250000000D-02
     Exponent=  2.0539164472D+02 Coefficients=  1.2196000000D-01
     Exponent=  7.4687870806D+01 Coefficients=  3.7861000000D-01
 P 1 1.00
     Exponent=  2.7159225748D+01 Coefficients=  1.0000000000D+00
 P 1 1.00
     Exponent=  9.8760820901D+00 Coefficients=  1.0000000000D+00
 P 1 1.00
     Exponent=  3.5913025782D+00 Coefficients=  1.0000000000D+00
 P 1 1.00
     Exponent=  1.3059282103D+00 Coefficients=  1.0000000000D+00
 P 1 1.00
     Exponent=  4.7488298555D-01 Coefficients=  1.0000000000D+00
 P 1 1.00
     Exponent=  1.7268472202D-01 Coefficients=  1.0000000000D+00
 P 1 1.00
     Exponent=  6.2794444370D-02 Coefficients=  1.0000000000D+00
 P 1 1.00
     Exponent=  2.2834343407D-02 Coefficients=  1.0000000000D+00
 D 4 1.00
     Exponent=  1.5776624282D+02 Coefficients=  7.9800000000D-03
     Exponent=  5.2588747607D+01 Coefficients=  4.9870000000D-02
     Exponent=  1.7529582536D+01 Coefficients=  2.2405000000D-01
     Exponent=  5.8431941786D+00 Coefficients=  4.4250000000D-01
 D 1 1.00
     Exponent=  1.9477313929D+00 Coefficients=  1.0000000000D+00
 D 1 1.00
     Exponent=  6.4924379762D-01 Coefficients=  1.0000000000D+00
 F 1 1.00
     Exponent=  1.6480000000D+00 Coefficients=  1.0000000000D+00
 F 1 1.00
     Exponent=  4.5490000000D-01 Coefficients=  1.0000000000D+00
 ****
 Centers:       1
 S 9 1.00
     Exponent=  2.1644816090D+06 Coefficients=  1.2320000000D-02
     Exponent=  1.0822408045D+06 Coefficients=  1.2970000000D-02
     Exponent=  5.4112040224D+05 Coefficients=  2.6370000000D-02
     Exponent=  2.7056020112D+05 Coefficients=  9.0400000000D-03
     Exponent=  1.3528010056D+05 Coefficients=  3.4980000000D-02
     Exponent=  6.7640050280D+04 Coefficients=  1.2220000000D-02
     Exponent=  3.3820025140D+04 Coefficients=  6.0520000000D-02
     Exponent=  1.6910012570D+04 Coefficients=  6.4930000000D-02
     Exponent=  8.4550062850D+03 Coefficients=  1.3819000000D-01
 S 1 1.00
     Exponent=  4.2275031425D+03 Coefficients=  1.0000000000D+00
 S 1 1.00
     Exponent=  2.1137515713D+03 Coefficients=  1.0000000000D+00
 S 1 1.00
     Exponent=  1.0568757856D+03 Coefficients=  1.0000000000D+00
 S 1 1.00
     Exponent=  5.2843789281D+02 Coefficients=  1.0000000000D+00
 S 1 1.00
     Exponent=  2.6421894641D+02 Coefficients=  1.0000000000D+00
 S 1 1.00
     Exponent=  1.3210947320D+02 Coefficients=  1.0000000000D+00
 S 1 1.00
     Exponent=  6.6054736602D+01 Coefficients=  1.0000000000D+00
 S 1 1.00
     Exponent=  3.3027368301D+01 Coefficients=  1.0000000000D+00
 S 1 1.00
     Exponent=  1.6513684150D+01 Coefficients=  1.0000000000D+00
 S 1 1.00
     Exponent=  8.2568420752D+00 Coefficients=  1.0000000000D+00
 S 1 1.00
     Exponent=  4.1284210376D+00 Coefficients=  1.0000000000D+00
 S 1 1.00
     Exponent=  2.0642105188D+00 Coefficients=  1.0000000000D+00
 S 1 1.00
     Exponent=  1.0321052594D+00 Coefficients=  1.0000000000D+00
 S 1 1.00
     Exponent=  5.1605262970D-01 Coefficients=  1.0000000000D+00
 S 1 1.00
     Exponent=  2.5802631485D-01 Coefficients=  1.0000000000D+00
 S 1 1.00
     Exponent=  1.2901315743D-01 Coefficients=  1.0000000000D+00
 S 1 1.00
     Exponent=  6.4506578713D-02 Coefficients=  1.0000000000D+00
 P 7 1.00
     Exponent=  3.2357915258D+04 Coefficients=  5.0200000000D-03
     Exponent=  1.4381295670D+04 Coefficients=  2.0200000000D-03
     Exponent=  6.3916869645D+03 Coefficients=  1.8070000000D-02
     Exponent=  2.8407497620D+03 Coefficients=  3.6620000000D-02
     Exponent=  1.2625554498D+03 Coefficients=  1.1172000000D-01
     Exponent=  5.6113575545D+02 Coefficients=  2.5586000000D-01
     Exponent=  2.4939366909D+02 Coefficients=  4.2608000000D-01
 P 1 1.00
     Exponent=  1.1084163071D+02 Coefficients=  1.0000000000D+00
 P 1 1.00
     Exponent=  4.9262946981D+01 Coefficients=  1.0000000000D+00
 P 1 1.00
     Exponent=  2.1894643103D+01 Coefficients=  1.0000000000D+00
 P 1 1.00
     Exponent=  9.7309524900D+00 Coefficients=  1.0000000000D+00
 P 1 1.00
     Exponent=  4.3248677733D+00 Coefficients=  1.0000000000D+00
 P 1 1.00
     Exponent=  1.9221634548D+00 Coefficients=  1.0000000000D+00
 P 1 1.00
     Exponent=  8.5429486881D-01 Coefficients=  1.0000000000D+00
 P 1 1.00
     Exponent=  3.7968660836D-01 Coefficients=  1.0000000000D+00
 P 1 1.00
     Exponent=  1.6874960372D-01 Coefficients=  1.0000000000D+00
 P 1 1.00
     Exponent=  7.4999823874D-02 Coefficients=  1.0000000000D+00
 P 1 1.00
     Exponent=  3.3333255055D-02 Coefficients=  1.0000000000D+00
 D 5 1.00
     Exponent=  1.9119003508D+03 Coefficients=  4.3300000000D-03
     Exponent=  7.6476014031D+02 Coefficients=  1.7780000000D-02
     Exponent=  3.0590405613D+02 Coefficients=  8.9710000000D-02
     Exponent=  1.2236162245D+02 Coefficients=  3.1123000000D-01
     Exponent=  4.8944648980D+01 Coefficients=  5.3206000000D-01
 D 1 1.00
     Exponent=  1.9577859592D+01 Coefficients=  1.0000000000D+00
 D 1 1.00
     Exponent=  7.8311438368D+00 Coefficients=  1.0000000000D+00
 D 1 1.00
     Exponent=  3.1324575347D+00 Coefficients=  1.0000000000D+00
 D 1 1.00
     Exponent=  1.2529830139D+00 Coefficients=  1.0000000000D+00
 D 1 1.00
     Exponent=  5.0119320556D-01 Coefficients=  1.0000000000D+00
 D 1 1.00
     Exponent=  2.0047728222D-01 Coefficients=  1.0000000000D+00
 D 1 1.00
     Exponent=  8.0190912889D-02 Coefficients=  1.0000000000D+00
 D 1 1.00
     Exponent=  3.2076365156D-02 Coefficients=  1.0000000000D+00
 F 4 1.00
     Exponent=  8.2289680979D+01 Coefficients=  6.1870000000D-02
     Exponent=  2.9923520356D+01 Coefficients=  2.4823000000D-01
     Exponent=  1.0881280130D+01 Coefficients=  4.9956000000D-01
     Exponent=  3.9568291380D+00 Coefficients=  4.0380000000D-01
 F 1 1.00
     Exponent=  1.4388469593D+00 Coefficients=  1.0000000000D+00
 F 1 1.00
     Exponent=  5.2321707610D-01 Coefficients=  1.0000000000D+00
 G 1 1.00
     Exponent=  2.6700000000D+00 Coefficients=  1.0000000000D+00
 G 1 1.00
     Exponent=  9.0960000000D-01 Coefficients=  1.0000000000D+00
 ****
 Ernie: Thresh=  0.10000D-02 Tol=  0.10000D-05 Strict=F.
 There are   642 symmetry adapted cartesian basis functions of A   symmetry.
 There are   567 symmetry adapted basis functions of A   symmetry.
   567 basis functions,   956 primitive gaussians,   642 cartesian basis functions
   127 alpha electrons      127 beta electrons
       nuclear repulsion energy      4688.2190812979 Hartrees.
 IExCor= 1009 DFT=T Ex=PBE Corr=PBE ExCW=0 ScaHFX=  0.000000
 ScaDFX=  1.000000  1.000000  1.000000  1.000000 ScalE2=  1.000000  1.000000
 IRadAn=      0 IRanWt=     -1 IRanGd=            0 ICorTp=0 IEmpDi=  4
 NAtoms=   13 NActive=   13 NUniq=   13 SFac= 1.00D+00 NAtFMM=   60 NAOKFM=F Big=F
 Integral buffers will be    131072 words long.
 Raffenetti 2 integral format.
 Two-electron integral symmetry is turned on.
 ------------------------------------------------------------------------------
 Polarizable Continuum Model (PCM)
 =================================
 Model                : PCM (using non-symmetric T matrix).
 Atomic radii         : UFF (Universal Force Field).
 Polarization charges : Total charges.
 Charge compensation  : None.
 Solution method      : On-the-fly selection.
 Cavity type          : Scaled VdW (van der Waals Surface) (Alpha=1.100).
 Cavity algorithm     : GePol (No added spheres)
                        Default sphere list used, NSphG=   13.
                        Lebedev-Laikov grids with approx.  5.0 points / Ang**2.
                        Smoothing algorithm: Karplus/York (Gamma=1.0000).
                        Polarization charges: spherical gaussians, with
                                              point-specific exponents (IZeta= 3).
                        Self-potential: point-specific (ISelfS= 7).
                        Self-field    : sphere-specific E.n sum rule (ISelfD= 2).
 Solvent              : Water, Eps=  78.355300 Eps(inf)=   1.777849
 ------------------------------------------------------------------------------
 Spheres list:
 ISph  on   Nord     Re0    Alpha      Xe            Ye            Ze
    1  Pt      1    1.3770  1.100      0.004820     -0.125103      0.017442
    2   N      2    1.8300  1.100      0.070463     -2.233901      0.194472
    3   N      3    1.8300  1.100      0.052695      0.123565      2.146512
    4   O      4    1.7500  1.100      0.698150     -2.730625      1.108151
    5   O      5    1.7500  1.100     -0.540620     -2.882314     -0.633561
    6   O      6    1.7500  1.100      0.979974     -0.354289      2.776857
    7   O      7    1.7500  1.100     -0.844082      0.757289      2.680813
    8  Br      8    2.0945  1.100     -2.532156     -0.311929      0.091448
    9  Br      9    2.0945  1.100      2.543276      0.008122     -0.099549
   10  Br     10    2.0945  1.100     -0.090860      2.442021     -0.203796
   11   N     11    1.8300  1.100     -0.031161     -0.334676     -2.106404
   12   O     12    1.7500  1.100      0.719851     -1.147030     -2.622725
   13   O     13    1.7500  1.100     -0.791897      0.361421     -2.757802
 ------------------------------------------------------------------------------
 GePol: Number of generator spheres                  =      13
 GePol: Total number of spheres                      =      13
 GePol: Number of exposed spheres                    =      12 ( 92.31%)
 GePol: Number of points                             =    1865
 GePol: Average weight of points                     =       0.14
 GePol: Minimum weight of points                     =   0.26D-08
 GePol: Maximum weight of points                     =    0.18586
 GePol: Number of points with low weight             =      41
 GePol: Fraction of low-weight points (<1% of avg)   =       2.20%
 GePol: Cavity surface area                          =    260.539 Ang**2
 GePol: Cavity volume                                =    286.200 Ang**3
 Leave Link  301 at Sat Oct 30 05:59:23 2021, MaxMem=  2013265920 cpu:         0.6
 (Enter /scr/programas/g09/l302.exe)
 NPDir=0 NMtPBC=     1 NCelOv=     1 NCel=       1 NClECP=     1 NCelD=      1
         NCelK=      1 NCelE2=     1 NClLst=     1 CellRange=     0.0.
 One-electron integrals computed using PRISM.
 NBasis=   567 RedAO= T EigKep=  5.50D-05  NBF=   567
 NBsUse=   567 1.00D-06 EigRej= -1.00D+00 NBFU=   567
 Precomputing XC quadrature grid using
 IXCGrd= 4 IRadAn=           0 IRanWt=          -1 IRanGd=           0 AccXCQ= 0.00D+00.
 Defaulting to unpruned grid for atomic number  78.
 Generated NRdTot=       0 NPtTot=           0 NUsed=           0 NTot=          32
 NSgBfM=   587   587   587   587   587 MxSgAt=    13 MxSgA2=    13.
 Leave Link  302 at Sat Oct 30 05:59:24 2021, MaxMem=  2013265920 cpu:         4.4
 (Enter /scr/programas/g09/l308.exe)
 Leave Link  308 at Sat Oct 30 05:59:25 2021, MaxMem=  2013265920 cpu:         0.7
 (Enter /scr/programas/g09/l303.exe)
 DipDrv:  MaxL=1.
 Leave Link  303 at Sat Oct 30 05:59:25 2021, MaxMem=  2013265920 cpu:         0.4
 (Enter /scr/programas/g09/l401.exe)
 ExpMin= 2.28D-02 ExpMax= 2.16D+06 ExpMxC= 2.16D+06 IAcc=4 IRadAn=    199590 AccDes= 0.00D+00
 Harris functional with IExCor= 1009 and IRadAn=  199590 diagonalized for initial guess.
 HarFok:  IExCor= 1009 AccDes= 0.00D+00 IRadAn=    199590 IDoV= 1 UseB2=F ITyADJ=14
 ICtDFT=  3500011 ScaDFX=  1.000000  1.000000  1.000000  1.000000
 FoFCou: FMM=F IPFlag=           0 FMFlag=      100000 FMFlg1=           0
         NFxFlg=           0 DoJE=T BraDBF=F KetDBF=T FulRan=T
         wScrn=  0.000000 ICntrl=     500 IOpCl=  0 I1Cent=   200000004 NGrid=           0
         NMat0=    1 NMatS0=      1 NMatT0=    0 NMatD0=    1 NMtDS0=    0 NMtDT0=    0
 Petite list used in FoFCou.
 Harris En= -25444.0567140227    
 JPrj=0 DoOrth=F DoCkMO=F.
 Leave Link  401 at Sat Oct 30 05:59:51 2021, MaxMem=  2013265920 cpu:       105.5
 (Enter /scr/programas/g09/l502.exe)
 Closed shell SCF:
 Using DIIS extrapolation, IDIIS=  1040.
 Integral symmetry usage will be decided dynamically.
 IVT=     1287536 IEndB=     1287536 NGot=  2013265920 MDV=  2012431591
 LenX=  2012431591 LenY=  2012018785
 Requested convergence on RMS density matrix=1.00D-08 within 200 cycles.
 Requested convergence on MAX density matrix=1.00D-06.
 Requested convergence on             energy=1.00D-06.
 No special actions if energy rises.
 Fock matrices will be formed incrementally for  20 cycles.

 Cycle   1  Pass 1  IDiag  1:
 FoFJK:  IHMeth= 1 ICntrl=     500 DoSepK=F KAlg= 0 I1Cent=   0 FoldK=F
 IRaf= 740000000 NMat=   1 IRICut=       1 DoRegI=T DoRafI=F ISym2E= 0.
 FoFCou: FMM=F IPFlag=           0 FMFlag=      100000 FMFlg1=           0
         NFxFlg=           0 DoJE=T BraDBF=F KetDBF=F FulRan=T
         wScrn=  0.000000 ICntrl=     500 IOpCl=  0 I1Cent=           0 NGrid=           0
         NMat0=    1 NMatS0=      1 NMatT0=    0 NMatD0=    1 NMtDS0=    0 NMtDT0=    0
 Symmetry not used in FoFCou.
 Defaulting to unpruned grid for atomic number  78.
 Defaulting to unpruned grid for atomic number  78.
 Defaulting to unpruned grid for atomic number  78.
 Defaulting to unpruned grid for atomic number  78.
 Inv3:  Mode=1 IEnd=    10434675.
 Iteration    1 A*A^-1 deviation from unit magnitude is 6.44D-15 for    861.
 Iteration    1 A*A^-1 deviation from orthogonality  is 5.00D-15 for    791    593.
 Iteration    1 A^-1*A deviation from unit magnitude is 6.44D-15 for    238.
 Iteration    1 A^-1*A deviation from orthogonality  is 3.03D-14 for    984    980.
 E= -25424.4812752763    
 DIIS: error= 5.67D-01 at cycle   1 NSaved=   1.
 NSaved= 1 IEnMin= 1 EnMin= -25424.4812752763     IErMin= 1 ErrMin= 5.67D-01
 ErrMax= 5.67D-01  0.00D+00 EMaxC= 1.00D-01 BMatC= 3.23D+02 BMatP= 3.23D+02
 IDIUse=3 WtCom= 0.00D+00 WtEn= 1.00D+00
 Coeff-Com:  0.100D+01
 Coeff-En:   0.100D+01
 Coeff:      0.100D+01
 Gap=     1.083 Goal=   None    Shift=    0.000
 GapD=    1.083 DampG=2.000 DampE=0.125 DampFc=0.2500 IDamp=-1.
 Damping current iteration by 2.50D-01
 RMSDP=1.47D-02 MaxDP=1.70D+00              OVMax= 8.25D-01

 Cycle   2  Pass 1  IDiag  1:
 RMSU=  3.66D-03    CP:  1.02D+00
 E= -25425.9629708323     Delta-E=       -1.481695556002 Rises=F Damp=T
 DIIS: error= 4.14D-01 at cycle   2 NSaved=   2.
 NSaved= 2 IEnMin= 2 EnMin= -25425.9629708323     IErMin= 2 ErrMin= 4.14D-01
 ErrMax= 4.14D-01  0.00D+00 EMaxC= 1.00D-01 BMatC= 1.54D+02 BMatP= 3.23D+02
 IDIUse=3 WtCom= 0.00D+00 WtEn= 1.00D+00
 Coeff-Com: -0.182D+01 0.282D+01
 Coeff-En:   0.267D+00 0.733D+00
 Coeff:      0.267D+00 0.733D+00
 Gap=    -0.133 Goal=   None    Shift=    0.000
 RMSDP=4.31D-03 MaxDP=3.80D-01 DE=-1.48D+00 OVMax= 8.64D-01

 Cycle   3  Pass 1  IDiag  1:
 RMSU=  4.09D-03    CP:  1.03D+00  6.28D-01
 E= -25426.4693214475     Delta-E=       -0.506350615269 Rises=F Damp=F
 DIIS: error= 1.05D-01 at cycle   3 NSaved=   3.
 NSaved= 3 IEnMin= 3 EnMin= -25426.4693214475     IErMin= 3 ErrMin= 1.05D-01
 ErrMax= 1.05D-01  0.00D+00 EMaxC= 1.00D-01 BMatC= 1.91D+01 BMatP= 1.54D+02
 IDIUse=3 WtCom= 0.00D+00 WtEn= 1.00D+00
 EnCoef did   100 forward-backward iterations
 Coeff-Com:  0.654D+00-0.697D+00 0.104D+01
 Coeff-En:   0.416D+00 0.845D-02 0.576D+00
 Coeff:      0.416D+00 0.845D-02 0.576D+00
 Gap=    -0.018 Goal=   None    Shift=    0.000
 RMSDP=5.23D-03 MaxDP=3.22D-01 DE=-5.06D-01 OVMax= 8.59D-01

 Cycle   4  Pass 1  IDiag  1:
 RMSU=  4.23D-03    CP:  1.01D+00  3.22D-01  3.09D-01
 E= -25426.5263703939     Delta-E=       -0.057048946321 Rises=F Damp=F
 DIIS: error= 5.17D-02 at cycle   4 NSaved=   4.
 NSaved= 4 IEnMin= 4 EnMin= -25426.5263703939     IErMin= 4 ErrMin= 5.17D-02
 ErrMax= 5.17D-02  0.00D+00 EMaxC= 1.00D-01 BMatC= 3.44D+00 BMatP= 1.91D+01
 IDIUse=3 WtCom= 4.83D-01 WtEn= 5.17D-01
 EnCoef did     6 forward-backward iterations
 Coeff-Com:  0.413D+00-0.487D+00 0.412D+00 0.662D+00
 Coeff-En:   0.267D+00 0.000D+00 0.443D+00 0.290D+00
 Coeff:      0.338D+00-0.235D+00 0.428D+00 0.470D+00
 Gap=    -0.053 Goal=   None    Shift=    0.000
 RMSDP=5.54D-03 MaxDP=1.85D-01 DE=-5.70D-02 OVMax= 9.38D-01

 Cycle   5  Pass 1  IDiag  1:
 RMSU=  3.47D-03    CP:  9.99D-01  3.18D-01  5.16D-01 -8.86D-05
 E= -25422.1531630712     Delta-E=        4.373207322697 Rises=F Damp=F
 DIIS: error= 5.63D-02 at cycle   5 NSaved=   5.
 NSaved= 5 IEnMin= 4 EnMin= -25426.5263703939     IErMin= 4 ErrMin= 5.17D-02
 ErrMax= 5.63D-02  0.00D+00 EMaxC= 1.00D-01 BMatC= 5.03D+00 BMatP= 3.44D+00
 IDIUse=2 WtCom= 0.00D+00 WtEn= 1.00D+00
 EnCoef did    13 forward-backward iterations
 Coeff-En:   0.124D+00 0.000D+00 0.257D+00 0.423D+00 0.196D+00
 Coeff:      0.124D+00 0.000D+00 0.257D+00 0.423D+00 0.196D+00
 Gap=    -0.051 Goal=   None    Shift=    0.000
 RMSDP=3.83D-03 MaxDP=1.69D-01 DE= 4.37D+00 OVMax= 9.84D-01

 Cycle   6  Pass 1  IDiag  1:
 RMSU=  1.65D-03    CP:  1.01D+00  1.60D-01  3.50D-01  1.80D-02  4.05D-02
 E= -25428.3180208111     Delta-E=       -6.164857739968 Rises=F Damp=F
 DIIS: error= 4.78D-02 at cycle   6 NSaved=   6.
 NSaved= 6 IEnMin= 6 EnMin= -25428.3180208111     IErMin= 6 ErrMin= 4.78D-02
 ErrMax= 4.78D-02  0.00D+00 EMaxC= 1.00D-01 BMatC= 3.09D+00 BMatP= 3.44D+00
 IDIUse=3 WtCom= 5.22D-01 WtEn= 4.78D-01
 EnCoef did     6 forward-backward iterations
 Coeff-Com: -0.277D+00 0.399D+00-0.179D-01 0.246D+00 0.165D+00 0.484D+00
 Coeff-En:   0.000D+00 0.000D+00 0.204D+00 0.284D+00 0.103D+00 0.409D+00
 Coeff:     -0.144D+00 0.209D+00 0.881D-01 0.264D+00 0.135D+00 0.448D+00
 Gap=     0.171 Goal=   None    Shift=    0.000
 RMSDP=2.29D-03 MaxDP=1.29D-01 DE=-6.16D+00 OVMax= 4.40D-01

 Cycle   7  Pass 1  IDiag  1:
 RMSU=  1.53D-03    CP:  1.01D+00  3.94D-01  5.40D-01  1.07D-01  6.09D-02
                    CP:  2.84D-01
 E= -25430.1883883691     Delta-E=       -1.870367557931 Rises=F Damp=F
 DIIS: error= 1.49D-02 at cycle   7 NSaved=   7.
 NSaved= 7 IEnMin= 7 EnMin= -25430.1883883691     IErMin= 7 ErrMin= 1.49D-02
 ErrMax= 1.49D-02  0.00D+00 EMaxC= 1.00D-01 BMatC= 3.99D-01 BMatP= 3.09D+00
 IDIUse=3 WtCom= 8.51D-01 WtEn= 1.49D-01
 Coeff-Com: -0.120D+00 0.167D+00-0.359D-01 0.128D+00 0.543D-01 0.285D+00
 Coeff-Com:  0.522D+00
 Coeff-En:   0.000D+00 0.000D+00 0.000D+00 0.000D+00 0.000D+00 0.182D+00
 Coeff-En:   0.818D+00
 Coeff:     -0.102D+00 0.142D+00-0.306D-01 0.109D+00 0.462D-01 0.270D+00
 Coeff:      0.566D+00
 Gap=     0.071 Goal=   None    Shift=    0.000
 RMSDP=1.55D-03 MaxDP=9.45D-02 DE=-1.87D+00 OVMax= 3.13D-01

 Cycle   8  Pass 1  IDiag  1:
 RMSU=  8.87D-04    CP:  1.01D+00  2.49D-01  4.16D-01  1.08D-01  5.41D-02
                    CP:  5.98D-01  4.13D-01
 E= -25430.2267973449     Delta-E=       -0.038408975837 Rises=F Damp=F
 DIIS: error= 1.35D-02 at cycle   8 NSaved=   8.
 NSaved= 8 IEnMin= 8 EnMin= -25430.2267973449     IErMin= 8 ErrMin= 1.35D-02
 ErrMax= 1.35D-02  0.00D+00 EMaxC= 1.00D-01 BMatC= 3.59D-01 BMatP= 3.99D-01
 IDIUse=3 WtCom= 8.65D-01 WtEn= 1.35D-01
 Coeff-Com: -0.680D-01 0.915D-01-0.211D-01 0.448D-01-0.595D-04 0.103D+00
 Coeff-Com:  0.456D+00 0.394D+00
 Coeff-En:   0.000D+00 0.000D+00 0.000D+00 0.000D+00 0.000D+00 0.000D+00
 Coeff-En:   0.478D+00 0.522D+00
 Coeff:     -0.589D-01 0.791D-01-0.183D-01 0.387D-01-0.515D-04 0.893D-01
 Coeff:      0.459D+00 0.411D+00
 Gap=     0.136 Goal=   None    Shift=    0.000
 RMSDP=8.02D-04 MaxDP=3.80D-02 DE=-3.84D-02 OVMax= 1.38D-01

 Cycle   9  Pass 1  IDiag  1:
 RMSU=  3.90D-04    CP:  1.01D+00  2.93D-01  4.49D-01  1.19D-01  5.05D-02
                    CP:  4.34D-01  7.11D-01  5.43D-01
 E= -25430.4592484255     Delta-E=       -0.232451080628 Rises=F Damp=F
 DIIS: error= 5.01D-03 at cycle   9 NSaved=   9.
 NSaved= 9 IEnMin= 9 EnMin= -25430.4592484255     IErMin= 9 ErrMin= 5.01D-03
 ErrMax= 5.01D-03  0.00D+00 EMaxC= 1.00D-01 BMatC= 5.39D-02 BMatP= 3.59D-01
 IDIUse=3 WtCom= 9.50D-01 WtEn= 5.01D-02
 EnCoef did     4 forward-backward iterations
 Coeff-Com: -0.550D-01 0.737D-01-0.170D-01 0.182D-01-0.915D-02 0.434D-01
 Coeff-Com:  0.291D+00 0.315D+00 0.339D+00
 Coeff-En:   0.000D+00 0.000D+00 0.000D+00 0.000D+00 0.000D+00 0.000D+00
 Coeff-En:   0.126D+00 0.130D+00 0.744D+00
 Coeff:     -0.523D-01 0.700D-01-0.161D-01 0.173D-01-0.869D-02 0.412D-01
 Coeff:      0.283D+00 0.306D+00 0.359D+00
 Gap=     0.068 Goal=   None    Shift=    0.000
 RMSDP=3.69D-04 MaxDP=1.55D-02 DE=-2.32D-01 OVMax= 7.23D-02

 Cycle  10  Pass 1  IDiag  1:
 RMSU=  2.19D-04    CP:  1.01D+00  3.17D-01  4.66D-01  1.19D-01  4.94D-02
                    CP:  4.43D-01  7.54D-01  5.43D-01  3.14D-01
 E= -25430.4905659983     Delta-E=       -0.031317572822 Rises=F Damp=F
 DIIS: error= 3.33D-03 at cycle  10 NSaved=  10.
 NSaved=10 IEnMin=10 EnMin= -25430.4905659983     IErMin=10 ErrMin= 3.33D-03
 ErrMax= 3.33D-03  0.00D+00 EMaxC= 1.00D-01 BMatC= 1.47D-02 BMatP= 5.39D-02
 IDIUse=3 WtCom= 9.67D-01 WtEn= 3.33D-02
 Coeff-Com: -0.138D-01 0.186D-01-0.597D-02 0.144D-01-0.661D-02-0.550D-02
 Coeff-Com:  0.754D-01 0.101D+00 0.323D+00 0.500D+00
 Coeff-En:   0.000D+00 0.000D+00 0.000D+00 0.000D+00 0.000D+00 0.000D+00
 Coeff-En:   0.000D+00 0.000D+00 0.262D+00 0.738D+00
 Coeff:     -0.134D-01 0.180D-01-0.577D-02 0.139D-01-0.639D-02-0.532D-02
 Coeff:      0.728D-01 0.972D-01 0.321D+00 0.508D+00
 Gap=     0.066 Goal=   None    Shift=    0.000
 RMSDP=1.84D-04 MaxDP=7.90D-03 DE=-3.13D-02 OVMax= 4.00D-02

 Cycle  11  Pass 1  IDiag  1:
 RMSU=  1.45D-04    CP:  1.01D+00  3.14D-01  4.60D-01  1.22D-01  4.86D-02
                    CP:  4.47D-01  7.39D-01  5.79D-01  4.84D-01  6.49D-01
 E= -25430.4978539933     Delta-E=       -0.007287994929 Rises=F Damp=F
 DIIS: error= 1.84D-03 at cycle  11 NSaved=  11.
 NSaved=11 IEnMin=11 EnMin= -25430.4978539933     IErMin=11 ErrMin= 1.84D-03
 ErrMax= 1.84D-03  0.00D+00 EMaxC= 1.00D-01 BMatC= 4.20D-03 BMatP= 1.47D-02
 IDIUse=3 WtCom= 9.82D-01 WtEn= 1.84D-02
 Coeff-Com: -0.140D-02 0.200D-02-0.177D-02 0.106D-01-0.459D-02-0.100D-01
 Coeff-Com:  0.159D-01 0.259D-01 0.204D+00 0.423D+00 0.336D+00
 Coeff-En:   0.000D+00 0.000D+00 0.000D+00 0.000D+00 0.000D+00 0.000D+00
 Coeff-En:   0.000D+00 0.000D+00 0.000D+00 0.270D+00 0.730D+00
 Coeff:     -0.138D-02 0.196D-02-0.174D-02 0.104D-01-0.451D-02-0.982D-02
 Coeff:      0.156D-01 0.255D-01 0.200D+00 0.421D+00 0.344D+00
 Gap=     0.062 Goal=   None    Shift=    0.000
 RMSDP=1.32D-04 MaxDP=6.69D-03 DE=-7.29D-03 OVMax= 4.17D-02

 Cycle  12  Pass 1  IDiag  1:
 RMSU=  4.89D-05    CP:  1.01D+00  3.12D-01  4.58D-01  1.25D-01  4.73D-02
                    CP:  4.32D-01  7.49D-01  5.61D-01  5.59D-01  7.62D-01
                    CP:  2.37D-01
 E= -25430.5010405758     Delta-E=       -0.003186582504 Rises=F Damp=F
 DIIS: error= 5.47D-04 at cycle  12 NSaved=  12.
 NSaved=12 IEnMin=12 EnMin= -25430.5010405758     IErMin=12 ErrMin= 5.47D-04
 ErrMax= 5.47D-04  0.00D+00 EMaxC= 1.00D-01 BMatC= 6.30D-04 BMatP= 4.20D-03
 IDIUse=3 WtCom= 9.95D-01 WtEn= 5.47D-03
 Coeff-Com: -0.244D-03 0.451D-03-0.510D-03 0.538D-02-0.327D-02-0.796D-03
 Coeff-Com: -0.138D-02-0.789D-02 0.549D-01 0.168D+00 0.266D+00 0.520D+00
 Coeff-En:   0.000D+00 0.000D+00 0.000D+00 0.000D+00 0.000D+00 0.000D+00
 Coeff-En:   0.000D+00 0.000D+00 0.000D+00 0.000D+00 0.143D+00 0.857D+00
 Coeff:     -0.243D-03 0.449D-03-0.508D-03 0.535D-02-0.326D-02-0.791D-03
 Coeff:     -0.138D-02-0.784D-02 0.546D-01 0.167D+00 0.265D+00 0.522D+00
 Gap=     0.060 Goal=   None    Shift=    0.000
 RMSDP=4.20D-05 MaxDP=2.69D-03 DE=-3.19D-03 OVMax= 1.11D-02

 Cycle  13  Pass 1  IDiag  1:
 RMSU=  2.89D-05    CP:  1.01D+00  3.13D-01  4.58D-01  1.26D-01  4.64D-02
                    CP:  4.33D-01  7.47D-01  5.70D-01  5.52D-01  7.90D-01
                    CP:  4.12D-01  7.81D-01
 E= -25430.5013683549     Delta-E=       -0.000327779118 Rises=F Damp=F
 DIIS: error= 4.02D-04 at cycle  13 NSaved=  13.
 NSaved=13 IEnMin=13 EnMin= -25430.5013683549     IErMin=13 ErrMin= 4.02D-04
 ErrMax= 4.02D-04  0.00D+00 EMaxC= 1.00D-01 BMatC= 3.23D-04 BMatP= 6.30D-04
 IDIUse=3 WtCom= 9.96D-01 WtEn= 4.02D-03
 Coeff-Com:  0.587D-03-0.707D-03-0.117D-04 0.199D-02-0.184D-02 0.507D-02
 Coeff-Com: -0.760D-02-0.226D-01-0.390D-01-0.262D-01 0.126D+00 0.503D+00
 Coeff-Com:  0.461D+00
 Coeff-En:   0.000D+00 0.000D+00 0.000D+00 0.000D+00 0.000D+00 0.000D+00
 Coeff-En:   0.000D+00 0.000D+00 0.000D+00 0.000D+00 0.000D+00 0.252D+00
 Coeff-En:   0.748D+00
 Coeff:      0.585D-03-0.705D-03-0.117D-04 0.198D-02-0.184D-02 0.505D-02
 Coeff:     -0.757D-02-0.225D-01-0.388D-01-0.261D-01 0.126D+00 0.502D+00
 Coeff:      0.463D+00
 Gap=     0.060 Goal=   None    Shift=    0.000
 RMSDP=3.09D-05 MaxDP=1.57D-03 DE=-3.28D-04 OVMax= 8.40D-03

 Cycle  14  Pass 1  IDiag  1:
 RMSU=  1.78D-05    CP:  1.01D+00  3.14D-01  4.58D-01  1.25D-01  4.53D-02
                    CP:  4.36D-01  7.48D-01  5.62D-01  5.39D-01  8.25D-01
                    CP:  4.92D-01  9.51D-01  4.62D-01
 E= -25430.5015732629     Delta-E=       -0.000204907963 Rises=F Damp=F
 DIIS: error= 2.05D-04 at cycle  14 NSaved=  14.
 NSaved=14 IEnMin=14 EnMin= -25430.5015732629     IErMin=14 ErrMin= 2.05D-04
 ErrMax= 2.05D-04  0.00D+00 EMaxC= 1.00D-01 BMatC= 7.42D-05 BMatP= 3.23D-04
 IDIUse=3 WtCom= 9.98D-01 WtEn= 2.05D-03
 Coeff-Com:  0.321D-03-0.385D-03-0.158D-03 0.111D-02-0.768D-03 0.402D-02
 Coeff-Com: -0.603D-02-0.162D-01-0.356D-01-0.460D-01 0.522D-01 0.272D+00
 Coeff-Com:  0.362D+00 0.414D+00
 Coeff-En:   0.000D+00 0.000D+00 0.000D+00 0.000D+00 0.000D+00 0.000D+00
 Coeff-En:   0.000D+00 0.000D+00 0.000D+00 0.000D+00 0.000D+00 0.000D+00
 Coeff-En:   0.166D+00 0.834D+00
 Coeff:      0.321D-03-0.384D-03-0.157D-03 0.111D-02-0.766D-03 0.401D-02
 Coeff:     -0.602D-02-0.161D-01-0.355D-01-0.459D-01 0.521D-01 0.271D+00
 Coeff:      0.362D+00 0.415D+00
 Gap=     0.060 Goal=   None    Shift=    0.000
 RMSDP=1.84D-05 MaxDP=8.76D-04 DE=-2.05D-04 OVMax= 5.48D-03

 Cycle  15  Pass 1  IDiag  1:
 RMSU=  1.30D-05    CP:  1.01D+00  3.14D-01  4.57D-01  1.26D-01  4.54D-02
                    CP:  4.36D-01  7.50D-01  5.56D-01  5.44D-01  8.33D-01
                    CP:  4.62D-01  1.05D+00  5.83D-01  5.26D-01
 E= -25430.5015989506     Delta-E=       -0.000025687761 Rises=F Damp=F
 DIIS: error= 1.50D-04 at cycle  15 NSaved=  15.
 NSaved=15 IEnMin=15 EnMin= -25430.5015989506     IErMin=15 ErrMin= 1.50D-04
 ErrMax= 1.50D-04  0.00D+00 EMaxC= 1.00D-01 BMatC= 3.95D-05 BMatP= 7.42D-05
 IDIUse=3 WtCom= 9.98D-01 WtEn= 1.50D-03
 Coeff-Com: -0.836D-04 0.115D-03-0.212D-03 0.148D-03-0.445D-04 0.826D-03
 Coeff-Com: -0.184D-02-0.285D-02-0.101D-01-0.280D-01-0.864D-02 0.920D-02
 Coeff-Com:  0.112D+00 0.442D+00 0.487D+00
 Coeff-En:   0.000D+00 0.000D+00 0.000D+00 0.000D+00 0.000D+00 0.000D+00
 Coeff-En:   0.000D+00 0.000D+00 0.000D+00 0.000D+00 0.000D+00 0.000D+00
 Coeff-En:   0.000D+00 0.398D+00 0.602D+00
 Coeff:     -0.835D-04 0.115D-03-0.212D-03 0.147D-03-0.445D-04 0.825D-03
 Coeff:     -0.184D-02-0.284D-02-0.101D-01-0.279D-01-0.863D-02 0.919D-02
 Coeff:      0.112D+00 0.442D+00 0.487D+00
 Gap=     0.059 Goal=   None    Shift=    0.000
 RMSDP=1.19D-05 MaxDP=6.05D-04 DE=-2.57D-05 OVMax= 3.68D-03

 Cycle  16  Pass 1  IDiag  1:
 RMSU=  3.64D-06    CP:  1.01D+00  3.14D-01  4.57D-01  1.26D-01  4.54D-02
                    CP:  4.35D-01  7.49D-01  5.61D-01  5.49D-01  8.31D-01
                    CP:  4.86D-01  1.03D+00  6.47D-01  6.57D-01  3.24D-01
 E= -25430.5016301634     Delta-E=       -0.000031212759 Rises=F Damp=F
 DIIS: error= 3.31D-05 at cycle  16 NSaved=  16.
 NSaved=16 IEnMin=16 EnMin= -25430.5016301634     IErMin=16 ErrMin= 3.31D-05
 ErrMax= 3.31D-05  0.00D+00 EMaxC= 1.00D-01 BMatC= 3.00D-06 BMatP= 3.95D-05
 IDIUse=1 WtCom= 1.00D+00 WtEn= 0.00D+00
 Coeff-Com:  0.534D-04-0.717D-04-0.657D-04 0.357D-04-0.532D-05 0.254D-03
 Coeff-Com: -0.953D-03-0.610D-03-0.473D-02-0.168D-01-0.109D-01-0.129D-01
 Coeff-Com:  0.414D-01 0.258D+00 0.325D+00 0.423D+00
 Coeff:      0.534D-04-0.717D-04-0.657D-04 0.357D-04-0.532D-05 0.254D-03
 Coeff:     -0.953D-03-0.610D-03-0.473D-02-0.168D-01-0.109D-01-0.129D-01
 Coeff:      0.414D-01 0.258D+00 0.325D+00 0.423D+00
 Gap=     0.059 Goal=   None    Shift=    0.000
 RMSDP=3.91D-06 MaxDP=2.49D-04 DE=-3.12D-05 OVMax= 1.01D-03

 Cycle  17  Pass 1  IDiag  1:
 RMSU=  1.36D-06    CP:  1.01D+00  3.14D-01  4.57D-01  1.26D-01  4.52D-02
                    CP:  4.35D-01  7.50D-01  5.60D-01  5.48D-01  8.34D-01
                    CP:  4.86D-01  1.04D+00  6.18D-01  7.02D-01  4.86D-01
                    CP:  4.57D-01
 E= -25430.5016324609     Delta-E=       -0.000002297544 Rises=F Damp=F
 DIIS: error= 2.48D-05 at cycle  17 NSaved=  17.
 NSaved=17 IEnMin=17 EnMin= -25430.5016324609     IErMin=17 ErrMin= 2.48D-05
 ErrMax= 2.48D-05  0.00D+00 EMaxC= 1.00D-01 BMatC= 7.52D-07 BMatP= 3.00D-06
 IDIUse=1 WtCom= 1.00D+00 WtEn= 0.00D+00
 Coeff-Com:  0.158D-04-0.196D-04-0.131D-04-0.110D-05 0.354D-05 0.668D-04
 Coeff-Com: -0.465D-03 0.277D-03-0.144D-02-0.767D-02-0.709D-02-0.128D-01
 Coeff-Com:  0.921D-02 0.126D+00 0.174D+00 0.326D+00 0.393D+00
 Coeff:      0.158D-04-0.196D-04-0.131D-04-0.110D-05 0.354D-05 0.668D-04
 Coeff:     -0.465D-03 0.277D-03-0.144D-02-0.767D-02-0.709D-02-0.128D-01
 Coeff:      0.921D-02 0.126D+00 0.174D+00 0.326D+00 0.393D+00
 Gap=     0.059 Goal=   None    Shift=    0.000
 RMSDP=1.11D-06 MaxDP=7.61D-05 DE=-2.30D-06 OVMax= 2.65D-04

 Cycle  18  Pass 1  IDiag  1:
 RMSU=  3.79D-07    CP:  1.01D+00  3.14D-01  4.57D-01  1.26D-01  4.52D-02
                    CP:  4.35D-01  7.49D-01  5.60D-01  5.48D-01  8.33D-01
                    CP:  4.86D-01  1.04D+00  6.26D-01  7.08D-01  4.65D-01
                    CP:  5.06D-01  4.69D-01
 E= -25430.5016329437     Delta-E=       -0.000000482796 Rises=F Damp=F
 DIIS: error= 6.10D-06 at cycle  18 NSaved=  18.
 NSaved=18 IEnMin=18 EnMin= -25430.5016329437     IErMin=18 ErrMin= 6.10D-06
 ErrMax= 6.10D-06  0.00D+00 EMaxC= 1.00D-01 BMatC= 6.75D-08 BMatP= 7.52D-07
 IDIUse=1 WtCom= 1.00D+00 WtEn= 0.00D+00
 Coeff-Com:  0.160D-04-0.208D-04-0.370D-05-0.408D-05 0.184D-05 0.236D-05
 Coeff-Com: -0.266D-03 0.300D-03-0.254D-03-0.300D-02-0.354D-02-0.681D-02
 Coeff-Com:  0.155D-02 0.568D-01 0.816D-01 0.158D+00 0.232D+00 0.483D+00
 Coeff:      0.160D-04-0.208D-04-0.370D-05-0.408D-05 0.184D-05 0.236D-05
 Coeff:     -0.266D-03 0.300D-03-0.254D-03-0.300D-02-0.354D-02-0.681D-02
 Coeff:      0.155D-02 0.568D-01 0.816D-01 0.158D+00 0.232D+00 0.483D+00
 Gap=     0.059 Goal=   None    Shift=    0.000
 RMSDP=3.38D-07 MaxDP=1.57D-05 DE=-4.83D-07 OVMax= 5.10D-05

 Cycle  19  Pass 1  IDiag  1:
 RMSU=  1.79D-07    CP:  1.01D+00  3.14D-01  4.57D-01  1.26D-01  4.52D-02
                    CP:  4.36D-01  7.49D-01  5.60D-01  5.48D-01  8.33D-01
                    CP:  4.86D-01  1.04D+00  6.25D-01  7.09D-01  4.69D-01
                    CP:  5.22D-01  4.76D-01  6.15D-01
 E= -25430.5016329859     Delta-E=       -0.000000042226 Rises=F Damp=F
 DIIS: error= 2.72D-06 at cycle  19 NSaved=  19.
 NSaved=19 IEnMin=19 EnMin= -25430.5016329859     IErMin=19 ErrMin= 2.72D-06
 ErrMax= 2.72D-06  0.00D+00 EMaxC= 1.00D-01 BMatC= 1.29D-08 BMatP= 6.75D-08
 IDIUse=1 WtCom= 1.00D+00 WtEn= 0.00D+00
 Coeff-Com:  0.114D-04-0.150D-04-0.895D-06-0.297D-05 0.982D-07-0.995D-05
 Coeff-Com: -0.142D-03 0.217D-03 0.103D-03-0.102D-02-0.165D-02-0.327D-02
 Coeff-Com: -0.503D-03 0.245D-01 0.367D-01 0.727D-01 0.121D+00 0.371D+00
 Coeff-Com:  0.381D+00
 Coeff:      0.114D-04-0.150D-04-0.895D-06-0.297D-05 0.982D-07-0.995D-05
 Coeff:     -0.142D-03 0.217D-03 0.103D-03-0.102D-02-0.165D-02-0.327D-02
 Coeff:     -0.503D-03 0.245D-01 0.367D-01 0.727D-01 0.121D+00 0.371D+00
 Coeff:      0.381D+00
 Gap=     0.059 Goal=   None    Shift=    0.000
 RMSDP=1.62D-07 MaxDP=9.23D-06 DE=-4.22D-08 OVMax= 4.40D-05

 Cycle  20  Pass 1  IDiag  1:
 RMSU=  1.08D-07    CP:  1.01D+00  3.14D-01  4.57D-01  1.26D-01  4.52D-02
                    CP:  4.36D-01  7.49D-01  5.60D-01  5.48D-01  8.33D-01
                    CP:  4.86D-01  1.04D+00  6.25D-01  7.09D-01  4.71D-01
                    CP:  5.19D-01  4.78D-01  6.93D-01  4.93D-01
 E= -25430.5016329919     Delta-E=       -0.000000005952 Rises=F Damp=F
 DIIS: error= 1.89D-06 at cycle  20 NSaved=  20.
 NSaved=20 IEnMin=20 EnMin= -25430.5016329919     IErMin=20 ErrMin= 1.89D-06
 ErrMax= 1.89D-06  0.00D+00 EMaxC= 1.00D-01 BMatC= 4.72D-09 BMatP= 1.29D-08
 IDIUse=1 WtCom= 1.00D+00 WtEn= 0.00D+00
 Coeff-Com:  0.512D-05-0.684D-05-0.257D-06-0.241D-05-0.567D-06-0.800D-05
 Coeff-Com: -0.596D-04 0.116D-03 0.182D-03-0.620D-04-0.486D-03-0.978D-03
 Coeff-Com: -0.854D-03 0.656D-02 0.107D-01 0.214D-01 0.436D-01 0.200D+00
 Coeff-Com:  0.370D+00 0.350D+00
 Coeff:      0.512D-05-0.684D-05-0.257D-06-0.241D-05-0.567D-06-0.800D-05
 Coeff:     -0.596D-04 0.116D-03 0.182D-03-0.620D-04-0.486D-03-0.978D-03
 Coeff:     -0.854D-03 0.656D-02 0.107D-01 0.214D-01 0.436D-01 0.200D+00
 Coeff:      0.370D+00 0.350D+00
 Gap=     0.059 Goal=   None    Shift=    0.000
 RMSDP=7.45D-08 MaxDP=3.79D-06 DE=-5.95D-09 OVMax= 1.91D-05

 Cycle  21  Pass 1  IDiag  1:
 Restarting incremental Fock formation.
 E= -25430.5016329927     Delta-E=       -0.000000000775 Rises=F Damp=F
 DIIS: error= 4.23D-07 at cycle  21 NSaved=  20.
 NSaved=20 IEnMin=20 EnMin= -25430.5016329927     IErMin=20 ErrMin= 4.23D-07
 ErrMax= 4.23D-07  0.00D+00 EMaxC= 1.00D-01 BMatC= 1.76D-10 BMatP= 4.72D-09
 IDIUse=1 WtCom= 1.00D+00 WtEn= 0.00D+00
 Coeff-Com:  0.880D-06-0.119D-05-0.452D-06-0.747D-06-0.138D-05-0.163D-04
 Coeff-Com:  0.323D-04 0.873D-04 0.906D-04-0.299D-04-0.852D-04-0.273D-03
 Coeff-Com:  0.776D-03 0.134D-02 0.203D-02 0.717D-02 0.586D-01 0.155D+00
 Coeff-Com:  0.200D+00 0.575D+00
 Coeff:      0.880D-06-0.119D-05-0.452D-06-0.747D-06-0.138D-05-0.163D-04
 Coeff:      0.323D-04 0.873D-04 0.906D-04-0.299D-04-0.852D-04-0.273D-03
 Coeff:      0.776D-03 0.134D-02 0.203D-02 0.717D-02 0.586D-01 0.155D+00
 Coeff:      0.200D+00 0.575D+00
 Gap=     0.059 Goal=   None    Shift=    0.000
 RMSDP=3.48D-08 MaxDP=1.72D-06 DE=-7.75D-10 OVMax= 9.25D-06

 Cycle  22  Pass 1  IDiag  1:
 RMSU=  3.48D-08    CP:  1.00D+00
 E= -25430.5016329918     Delta-E=        0.000000000880 Rises=F Damp=F
 DIIS: error= 2.34D-07 at cycle  22 NSaved=  20.
 NSaved=20 IEnMin=19 EnMin= -25430.5016329927     IErMin=20 ErrMin= 2.34D-07
 ErrMax= 2.34D-07  0.00D+00 EMaxC= 1.00D-01 BMatC= 8.44D-11 BMatP= 1.76D-10
 IDIUse=1 WtCom= 1.00D+00 WtEn= 0.00D+00
 Coeff-Com: -0.320D-07-0.309D-06-0.613D-08-0.264D-06-0.765D-06 0.588D-05
 Coeff-Com:  0.402D-04 0.801D-04 0.668D-04 0.118D-03-0.301D-04-0.543D-03
 Coeff-Com: -0.837D-03-0.215D-02-0.210D-02 0.742D-02 0.484D-01 0.847D-01
 Coeff-Com:  0.443D+00 0.422D+00
 Coeff:     -0.320D-07-0.309D-06-0.613D-08-0.264D-06-0.765D-06 0.588D-05
 Coeff:      0.402D-04 0.801D-04 0.668D-04 0.118D-03-0.301D-04-0.543D-03
 Coeff:     -0.837D-03-0.215D-02-0.210D-02 0.742D-02 0.484D-01 0.847D-01
 Coeff:      0.443D+00 0.422D+00
 Gap=     0.059 Goal=   None    Shift=    0.000
 RMSDP=1.61D-08 MaxDP=7.17D-07 DE= 8.80D-10 OVMax= 4.47D-06

 Cycle  23  Pass 1  IDiag  1:
 RMSU=  9.81D-09    CP:  1.00D+00  6.35D-01
 E= -25430.5016329918     Delta-E=       -0.000000000022 Rises=F Damp=F
 DIIS: error= 6.38D-08 at cycle  23 NSaved=  20.
 NSaved=20 IEnMin=18 EnMin= -25430.5016329927     IErMin=20 ErrMin= 6.38D-08
 ErrMax= 6.38D-08  0.00D+00 EMaxC= 1.00D-01 BMatC= 3.80D-12 BMatP= 8.44D-11
 IDIUse=1 WtCom= 1.00D+00 WtEn= 0.00D+00
 Coeff-Com: -0.549D-07 0.347D-07-0.126D-07-0.181D-06 0.712D-06 0.112D-04
 Coeff-Com:  0.198D-04 0.281D-04 0.545D-04 0.218D-04-0.204D-03-0.346D-03
 Coeff-Com: -0.635D-03-0.820D-03-0.201D-02 0.909D-02 0.234D-01 0.183D+00
 Coeff-Com:  0.218D+00 0.571D+00
 Coeff:     -0.549D-07 0.347D-07-0.126D-07-0.181D-06 0.712D-06 0.112D-04
 Coeff:      0.198D-04 0.281D-04 0.545D-04 0.218D-04-0.204D-03-0.346D-03
 Coeff:     -0.635D-03-0.820D-03-0.201D-02 0.909D-02 0.234D-01 0.183D+00
 Coeff:      0.218D+00 0.571D+00
 Gap=     0.059 Goal=   None    Shift=    0.000
 RMSDP=5.72D-09 MaxDP=2.34D-07 DE=-2.18D-11 OVMax= 9.11D-07

 Error on total polarization charges =  0.02868
 SCF Done:  E(RPBE-PBE) =  -25430.5016330     A.U. after   23 cycles
            NFock= 23  Conv=0.57D-08     -V/T= 2.0133
 KE= 2.509664223042D+04 PE=-6.980751053041D+04 EE= 1.459214758569D+04
 Leave Link  502 at Sat Oct 30 06:17:59 2021, MaxMem=  2013265920 cpu:      4329.1
 (Enter /scr/programas/g09/l801.exe)
 Range of M.O.s used for correlation:     1   567
 NBasis=   567 NAE=   127 NBE=   127 NFC=     0 NFV=     0
 NROrb=    567 NOA=   127 NOB=   127 NVA=   440 NVB=   440

 **** Warning!!: The largest alpha MO coefficient is  0.26518144D+02


 **** Warning!!: The smallest alpha delta epsilon is  0.59415527D-01

 Leave Link  801 at Sat Oct 30 06:17:59 2021, MaxMem=  2013265920 cpu:         0.1
 (Enter /scr/programas/g09/l1002.exe)
 Minotr:  Closed shell wavefunction.
 NEqPCM:  Using equilibrium solvation (IEInf=0, Eps=  78.3553, EpsInf=   1.7778)
          Direct CPHF calculation.
          Differentiating once with respect to magnetic field using GIAOs.
          Electric field/nuclear overlap derivatives assumed to be zero.
          Requested convergence is 1.0D-08 RMS, and 1.0D-07 maximum.
          Secondary convergence is 1.0D-12 RMS, and 1.0D-12 maximum.
          NewPWx=T KeepS1=F KeepF1=F KeepIn=T MapXYZ=F SortEE=F KeepMc=T.
          MDV=    2013265245 using IRadAn=       2.
 Defaulting to unpruned grid for atomic number  78.
 Generate precomputed XC quadrature information.
          Solving linear equations simultaneously, MaxMat=       0.
 FoFJK:  IHMeth= 1 ICntrl=    6127 DoSepK=F KAlg= 0 I1Cent=   0 FoldK=F
 IRaf=         1 NMat=   1 IRICut=       1 DoRegI=T DoRafI=F ISym2E= 0.
 Defaulting to unpruned grid for atomic number  78.
 Defaulting to unpruned grid for atomic number  78.
 Defaulting to unpruned grid for atomic number  78.
 Defaulting to unpruned grid for atomic number  78.
          There are     3 degrees of freedom in the 1st order CPHF.  IDoFFX=0 NUNeed=     3.
      3 vectors produced by pass  0 Test12= 1.86D-12 3.33D-08 XBig12= 4.95D+01 3.04D+00.
 AX will form     3 AO Fock derivatives at one time.
 InvSVY:  IOpt=1 It=  1 EMax= 0.00D+00
 Solved reduced A of dimension     3 with     3 vectors.
 Calculating GIAO nuclear magnetic shielding tensors.
 SCF GIAO Magnetic shielding tensor (ppm):
      1  Pt   Isotropic = -1111.0234   Anisotropy =  1280.9009
   XX= -2294.4168   YX=   122.5805   ZX=  -173.6897
   XY=   -50.6734   YY=  -753.5839   ZY=    89.6526
   XZ=   -44.6910   YZ=   123.6993   ZZ=  -285.0694
   Eigenvalues: -2301.4588  -774.5219  -257.0894
      2  N    Isotropic =  -184.3143   Anisotropy =   266.3959
   XX=  -106.7469   YX=    -7.4780   ZX=  -138.1910
   XY=    -7.4165   YY=  -231.5067   ZY=    -0.0168
   XZ=  -149.9443   YZ=    -0.7026   ZZ=  -214.6894
   Eigenvalues:  -314.8111  -231.4148    -6.7171
      3  N    Isotropic =  -210.2133   Anisotropy =   327.5156
   XX=  -298.4470   YX=   183.2388   ZX=   -22.5970
   XY=   176.8472   YY=  -103.7213   ZY=   -24.0193
   XZ=   -19.1678   YZ=   -27.3195   ZZ=  -228.4715
   Eigenvalues:  -405.8984  -232.8720     8.1305
      4  O    Isotropic =  -377.7207   Anisotropy =   476.6269
   XX=  -249.9094   YX=   -66.7551   ZX=  -292.2857
   XY=    53.1497   YY=  -384.6546   ZY=    76.0792
   XZ=  -284.9892   YZ=   -93.5409   ZZ=  -498.5982
   Eigenvalues:  -688.9358  -384.2569   -59.9695
      5  O    Isotropic =  -381.1429   Anisotropy =   446.7834
   XX=  -249.2802   YX=    35.7770   ZX=  -260.6541
   XY=   -90.8095   YY=  -387.7318   ZY=   -94.5965
   XZ=  -267.9721   YZ=    59.0265   ZZ=  -506.4167
   Eigenvalues:  -674.8421  -385.2993   -83.2873
      6  O    Isotropic =  -406.2393   Anisotropy =   529.1591
   XX=  -542.9851   YX=   340.0498   ZX=    28.2926
   XY=   297.4763   YY=  -274.7576   ZY=   -75.9598
   XZ=  -149.0752   YZ=    18.0004   ZZ=  -400.9753
   Eigenvalues:  -758.0328  -407.2186   -53.4666
      7  O    Isotropic =  -414.1334   Anisotropy =   518.2400
   XX=  -566.9336   YX=   312.0443   ZX=  -126.1853
   XY=   318.4353   YY=  -281.8430   ZY=     4.5080
   XZ=    69.7514   YZ=  -102.2675   ZZ=  -393.6236
   Eigenvalues:  -770.3794  -403.3808   -68.6401
      8  Br   Isotropic =  1515.2281   Anisotropy =  2211.6175
   XX=  2988.6587   YX=  -279.5145   ZX=   193.0429
   XY=   215.5501   YY=   501.6515   ZY=   330.2760
   XZ=  -117.7698   YZ=   439.5510   ZZ=  1055.3742
   Eigenvalues:   303.5954  1252.4492  2989.6398
      9  Br   Isotropic =  1546.1177   Anisotropy =  2122.9386
   XX=  2960.3303   YX=    21.9490   ZX=    91.8708
   XY=    55.6033   YY=   447.9200   ZY=   -23.3375
   XZ=   -33.0514   YZ=   -46.3277   ZZ=  1230.1028
   Eigenvalues:   445.7340  1231.2090  2961.4101
     10  Br   Isotropic =  2287.3943   Anisotropy =   975.0454
   XX=  1606.1326   YX=   -58.6453   ZX=    11.2138
   XY=   -80.5892   YY=  2924.4436   ZY=   -48.4886
   XZ=    51.5577   YZ=   -98.5854   ZZ=  2331.6068
   Eigenvalues:  1601.4266  2323.3318  2937.4246
     11  N    Isotropic =  -210.8780   Anisotropy =   328.6057
   XX=  -207.5646   YX=   211.9688   ZX=   -21.9533
   XY=   201.7669   YY=  -192.7528   ZY=    -4.1623
   XZ=   -17.6044   YZ=    -7.7372   ZZ=  -232.3166
   Eigenvalues:  -407.7434  -233.0830     8.1925
     12  O    Isotropic =  -409.8153   Anisotropy =   497.9510
   XX=  -388.6891   YX=   329.6064   ZX=   -99.9930
   XY=   338.9716   YY=  -439.2311   ZY=    69.2058
   XZ=    47.9687   YZ=   -62.3947   ZZ=  -401.5257
   Eigenvalues:  -750.3721  -401.2258   -77.8480
     13  O    Isotropic =  -417.1214   Anisotropy =   515.0444
   XX=  -399.5095   YX=   361.0664   ZX=    26.4585
   XY=   331.6658   YY=  -445.1634   ZY=   -52.5111
   XZ=  -115.1123   YZ=    82.9107   ZZ=  -406.6912
   Eigenvalues:  -774.1254  -403.4802   -73.7585
 End of Minotr F.D. properties file   721 does not exist.
 End of Minotr F.D. properties file   722 does not exist.
 End of Minotr F.D. properties file   788 does not exist.
 Leave Link 1002 at Sat Oct 30 06:29:40 2021, MaxMem=  2013265920 cpu:      2781.8
 (Enter /scr/programas/g09/l601.exe)
 Copying SCF densities to generalized density rwf, IOpCl= 0 IROHF=0.

 **********************************************************************

            Population analysis using the SCF density.

 **********************************************************************

 Orbital symmetries:
       Occupied  (A) (A) (A) (A) (A) (A) (A) (A) (A) (A) (A) (A)
                 (A) (A) (A) (A) (A) (A) (A) (A) (A) (A) (A) (A)
                 (A) (A) (A) (A) (A) (A) (A) (A) (A) (A) (A) (A)
                 (A) (A) (A) (A) (A) (A) (A) (A) (A) (A) (A) (A)
                 (A) (A) (A) (A) (A) (A) (A) (A) (A) (A) (A) (A)
                 (A) (A) (A) (A) (A) (A) (A) (A) (A) (A) (A) (A)
                 (A) (A) (A) (A) (A) (A) (A) (A) (A) (A) (A) (A)
                 (A) (A) (A) (A) (A) (A) (A) (A) (A) (A) (A) (A)
                 (A) (A) (A) (A) (A) (A) (A) (A) (A) (A) (A) (A)
                 (A) (A) (A) (A) (A) (A) (A) (A) (A) (A) (A) (A)
                 (A) (A) (A) (A) (A) (A) (A)
       Virtual   (A) (A) (A) (A) (A) (A) (A) (A) (A) (A) (A) (A)
                 (A) (A) (A) (A) (A) (A) (A) (A) (A) (A) (A) (A)
                 (A) (A) (A) (A) (A) (A) (A) (A) (A) (A) (A) (A)
                 (A) (A) (A) (A) (A) (A) (A) (A) (A) (A) (A) (A)
                 (A) (A) (A) (A) (A) (A) (A) (A) (A) (A) (A) (A)
                 (A) (A) (A) (A) (A) (A) (A) (A) (A) (A) (A) (A)
                 (A) (A) (A) (A) (A) (A) (A) (A) (A) (A) (A) (A)
                 (A) (A) (A) (A) (A) (A) (A) (A) (A) (A) (A) (A)
                 (A) (A) (A) (A) (A) (A) (A) (A) (A) (A) (A) (A)
                 (A) (A) (A) (A) (A) (A) (A) (A) (A) (A) (A) (A)
                 (A) (A) (A) (A) (A) (A) (A) (A) (A) (A) (A) (A)
                 (A) (A) (A) (A) (A) (A) (A) (A) (A) (A) (A) (A)
                 (A) (A) (A) (A) (A) (A) (A) (A) (A) (A) (A) (A)
                 (A) (A) (A) (A) (A) (A) (A) (A) (A) (A) (A) (A)
                 (A) (A) (A) (A) (A) (A) (A) (A) (A) (A) (A) (A)
                 (A) (A) (A) (A) (A) (A) (A) (A) (A) (A) (A) (A)
                 (A) (A) (A) (A) (A) (A) (A) (A) (A) (A) (A) (A)
                 (A) (A) (A) (A) (A) (A) (A) (A) (A) (A) (A) (A)
                 (A) (A) (A) (A) (A) (A) (A) (A) (A) (A) (A) (A)
                 (A) (A) (A) (A) (A) (A) (A) (A) (A) (A) (A) (A)
                 (A) (A) (A) (A) (A) (A) (A) (A) (A) (A) (A) (A)
                 (A) (A) (A) (A) (A) (A) (A) (A) (A) (A) (A) (A)
                 (A) (A) (A) (A) (A) (A) (A) (A) (A) (A) (A) (A)
                 (A) (A) (A) (A) (A) (A) (A) (A) (A) (A) (A) (A)
                 (A) (A) (A) (A) (A) (A) (A) (A) (A) (A) (A) (A)
                 (A) (A) (A) (A) (A) (A) (A) (A) (A) (A) (A) (A)
                 (A) (A) (A) (A) (A) (A) (A) (A) (A) (A) (A) (A)
                 (A) (A) (A) (A) (A) (A) (A) (A) (A) (A) (A) (A)
                 (A) (A) (A) (A) (A) (A) (A) (A) (A) (A) (A) (A)
                 (A) (A) (A) (A) (A) (A) (A) (A) (A) (A) (A) (A)
                 (A) (A) (A) (A) (A) (A) (A) (A) (A) (A) (A) (A)
                 (A) (A) (A) (A) (A) (A) (A) (A) (A) (A) (A) (A)
                 (A) (A) (A) (A) (A) (A) (A) (A) (A) (A) (A) (A)
                 (A) (A) (A) (A) (A) (A) (A) (A) (A) (A) (A) (A)
                 (A) (A) (A) (A) (A) (A) (A) (A) (A) (A) (A) (A)
                 (A) (A) (A) (A) (A) (A) (A) (A) (A) (A) (A) (A)
                 (A) (A) (A) (A) (A) (A) (A) (A)
 The electronic state is 1-A.
 Alpha  occ. eigenvalues -- **********-478.58114-478.58104-478.57321-427.60109
 Alpha  occ. eigenvalues -- -414.93025-414.93019-414.93010 -99.98135 -92.13804
 Alpha  occ. eigenvalues --  -92.13797 -92.13771 -79.09726 -79.09708 -79.09590
 Alpha  occ. eigenvalues --  -79.09570 -79.09561 -61.49952 -61.49943 -61.49163
 Alpha  occ. eigenvalues --  -55.68434 -55.68423 -55.68142 -55.68137 -55.68134
 Alpha  occ. eigenvalues --  -55.68127 -55.67617 -55.67365 -55.67363 -20.89609
 Alpha  occ. eigenvalues --  -18.79461 -18.79348 -18.78089 -18.78014 -18.77986
 Alpha  occ. eigenvalues --  -18.77837 -17.46073 -17.46058 -17.46011 -14.18916
 Alpha  occ. eigenvalues --  -14.17163 -14.17044 -11.64511 -11.64473 -11.64027
 Alpha  occ. eigenvalues --  -11.63971 -11.63948  -8.32803  -8.32795  -8.32012
 Alpha  occ. eigenvalues --   -6.23677  -6.23664  -6.22828  -6.22823  -6.22813
 Alpha  occ. eigenvalues --   -6.22806  -6.22805  -6.22072  -6.22068  -3.19325
 Alpha  occ. eigenvalues --   -3.19306  -3.19271  -3.19028  -3.19017  -3.19007
 Alpha  occ. eigenvalues --   -3.18664  -2.92376  -2.44609  -2.44598  -2.44396
 Alpha  occ. eigenvalues --   -2.44388  -2.44386  -2.44375  -2.43761  -2.43761
 Alpha  occ. eigenvalues --   -2.43759  -2.43756  -2.43755  -2.43572  -2.43570
 Alpha  occ. eigenvalues --   -2.43030  -2.43029  -1.86388  -1.86336  -1.86225
 Alpha  occ. eigenvalues --   -1.13759  -1.12171  -1.12054  -0.97551  -0.95810
 Alpha  occ. eigenvalues --   -0.95670  -0.66157  -0.65342  -0.64791  -0.58158
 Alpha  occ. eigenvalues --   -0.57910  -0.56021  -0.48768  -0.48033  -0.47594
 Alpha  occ. eigenvalues --   -0.46369  -0.46201  -0.45612  -0.45450  -0.45114
 Alpha  occ. eigenvalues --   -0.44920  -0.35962  -0.33194  -0.32812  -0.31987
 Alpha  occ. eigenvalues --   -0.31682  -0.28821  -0.27816  -0.27285  -0.27101
 Alpha  occ. eigenvalues --   -0.26106  -0.25030  -0.24318  -0.23765  -0.23166
 Alpha  occ. eigenvalues --   -0.23051  -0.22575  -0.22027  -0.21907  -0.21302
 Alpha  occ. eigenvalues --   -0.21110  -0.20309
 Alpha virt. eigenvalues --   -0.14367  -0.11658  -0.09447  -0.08970  -0.07936
 Alpha virt. eigenvalues --    0.00136   0.00417   0.01319   0.01551   0.02808
 Alpha virt. eigenvalues --    0.03015   0.03173   0.03772   0.04477   0.05244
 Alpha virt. eigenvalues --    0.06669   0.07105   0.07724   0.08508   0.08966
 Alpha virt. eigenvalues --    0.09725   0.11084   0.11253   0.12135   0.14611
 Alpha virt. eigenvalues --    0.15685   0.16330   0.16989   0.17130   0.17604
 Alpha virt. eigenvalues --    0.18248   0.18840   0.19133   0.19498   0.20608
 Alpha virt. eigenvalues --    0.20830   0.21980   0.22938   0.23445   0.23982
 Alpha virt. eigenvalues --    0.24596   0.24698   0.26186   0.26436   0.27246
 Alpha virt. eigenvalues --    0.28021   0.29882   0.30621   0.31700   0.32678
 Alpha virt. eigenvalues --    0.33619   0.35822   0.36292   0.37348   0.37741
 Alpha virt. eigenvalues --    0.38728   0.39244   0.39798   0.40733   0.41294
 Alpha virt. eigenvalues --    0.42478   0.43353   0.44144   0.45621   0.47450
 Alpha virt. eigenvalues --    0.48018   0.49007   0.49701   0.52466   0.53603
 Alpha virt. eigenvalues --    0.54064   0.54487   0.55113   0.55798   0.56989
 Alpha virt. eigenvalues --    0.57431   0.57827   0.58605   0.59682   0.59962
 Alpha virt. eigenvalues --    0.62660   0.63252   0.64007   0.65268   0.65813
 Alpha virt. eigenvalues --    0.66308   0.66737   0.67343   0.68629   0.68974
 Alpha virt. eigenvalues --    0.70059   0.71481   0.72213   0.73051   0.73100
 Alpha virt. eigenvalues --    0.73954   0.74465   0.75121   0.76135   0.76682
 Alpha virt. eigenvalues --    0.77604   0.78074   0.78511   0.79597   0.81185
 Alpha virt. eigenvalues --    0.81365   0.82906   0.83985   0.85471   0.86504
 Alpha virt. eigenvalues --    0.86819   0.87284   0.88896   0.89682   0.90084
 Alpha virt. eigenvalues --    0.91406   0.91687   0.92264   0.92835   0.93374
 Alpha virt. eigenvalues --    0.94414   0.95243   0.95545   0.96685   0.97147
 Alpha virt. eigenvalues --    0.98881   0.99944   1.00220   1.01413   1.03412
 Alpha virt. eigenvalues --    1.03903   1.04516   1.05404   1.05973   1.06492
 Alpha virt. eigenvalues --    1.07816   1.09101   1.09535   1.11170   1.11519
 Alpha virt. eigenvalues --    1.11947   1.14451   1.15240   1.15263   1.15872
 Alpha virt. eigenvalues --    1.17719   1.18136   1.19015   1.20025   1.20768
 Alpha virt. eigenvalues --    1.21186   1.22168   1.22679   1.23334   1.23766
 Alpha virt. eigenvalues --    1.24162   1.24267   1.26050   1.26380   1.27063
 Alpha virt. eigenvalues --    1.28168   1.28333   1.29432   1.29896   1.30694
 Alpha virt. eigenvalues --    1.32853   1.33305   1.34234   1.35800   1.36589
 Alpha virt. eigenvalues --    1.37124   1.38365   1.39287   1.40007   1.40885
 Alpha virt. eigenvalues --    1.40980   1.41829   1.42936   1.44250   1.45512
 Alpha virt. eigenvalues --    1.46477   1.47357   1.49123   1.51158   1.52362
 Alpha virt. eigenvalues --    1.53039   1.53844   1.54592   1.55744   1.57578
 Alpha virt. eigenvalues --    1.60431   1.62911   1.65387   1.68718   1.69169
 Alpha virt. eigenvalues --    1.69454   1.72412   1.73269   1.75156   1.76138
 Alpha virt. eigenvalues --    1.77042   1.78808   1.82319   1.84121   1.85474
 Alpha virt. eigenvalues --    1.88778   1.90408   1.91898   1.93572   1.96113
 Alpha virt. eigenvalues --    2.00461   2.04040   2.09285   2.36492   2.37031
 Alpha virt. eigenvalues --    2.37573   2.39191   2.42170   2.42990   2.44073
 Alpha virt. eigenvalues --    2.45729   2.46681   2.48243   2.49439   2.50667
 Alpha virt. eigenvalues --    2.51968   2.54249   2.55360   2.55781   2.56065
 Alpha virt. eigenvalues --    2.57465   2.58179   2.58997   2.62746   2.64250
 Alpha virt. eigenvalues --    2.66795   2.67618   2.68041   2.68896   2.71232
 Alpha virt. eigenvalues --    2.72135   2.74022   2.76407   2.79216   2.81613
 Alpha virt. eigenvalues --    2.84446   2.85493   2.89177   2.92144   3.01117
 Alpha virt. eigenvalues --    3.07809   3.11017   3.12950   3.13557   3.15266
 Alpha virt. eigenvalues --    3.15783   3.18191   3.18901   3.20144   3.21567
 Alpha virt. eigenvalues --    3.23238   3.25432   3.28333   3.33296   3.34280
 Alpha virt. eigenvalues --    3.43271   3.45387   3.47523   3.48845   3.57921
 Alpha virt. eigenvalues --    3.60230   3.62418   3.73322   3.75880   3.79309
 Alpha virt. eigenvalues --    3.80739   3.82889   3.84489   3.84746   3.86077
 Alpha virt. eigenvalues --    3.87896   3.89968   3.97073   3.97785   3.99819
 Alpha virt. eigenvalues --    4.03593   4.05818   4.06552   4.07198   4.07737
 Alpha virt. eigenvalues --    4.09593   4.10896   4.11805   4.20555   4.29043
 Alpha virt. eigenvalues --    4.30106   4.31030   4.31819   4.32353   4.32749
 Alpha virt. eigenvalues --    4.33590   4.33862   4.34113   4.34578   4.35021
 Alpha virt. eigenvalues --    4.35569   4.36379   4.36705   4.37365   4.38027
 Alpha virt. eigenvalues --    4.39466   4.39932   4.40101   4.40557   4.40944
 Alpha virt. eigenvalues --    4.42392   4.42881   4.45324   4.46941   4.48295
 Alpha virt. eigenvalues --    4.49348   4.50377   4.51611   4.52381   4.55729
 Alpha virt. eigenvalues --    5.39188   5.42113   5.45829   5.71953   5.77423
 Alpha virt. eigenvalues --    5.83553   5.89906   5.92028   5.95167   5.95964
 Alpha virt. eigenvalues --    6.03089   6.03343   6.05300   6.07039   6.11276
 Alpha virt. eigenvalues --    6.12046   6.13648   6.14502   6.26626   6.31993
 Alpha virt. eigenvalues --    6.38150   6.86724   6.90646   6.95625   6.99661
 Alpha virt. eigenvalues --    7.01689   7.02582   8.43617   8.43909   8.44991
 Alpha virt. eigenvalues --    8.45600   8.47284   8.48225   8.53523   8.55133
 Alpha virt. eigenvalues --    8.65110   8.84679   9.79662   9.82728   9.91630
 Alpha virt. eigenvalues --   10.03103  10.11613  14.04240  14.11203  14.16316
 Alpha virt. eigenvalues --   20.29408  20.29941  20.30206  20.30347  20.31355
 Alpha virt. eigenvalues --   20.31903  20.38469  20.41607  20.44499  20.93093
 Alpha virt. eigenvalues --   20.99480  21.04109  22.96997  22.99130  23.02890
 Alpha virt. eigenvalues --   25.92960  30.15576  30.20580  30.24744  30.28264
 Alpha virt. eigenvalues --   30.30663  30.31283  42.84344  42.86276  42.92068
 Alpha virt. eigenvalues --   42.98617  43.03819  65.10105  65.16162  65.20703
 Alpha virt. eigenvalues --   81.97306  86.06051  86.11121  86.14642 112.74088
 Alpha virt. eigenvalues --  112.74410 112.74717 112.74799 112.75422 112.75832
 Alpha virt. eigenvalues --  112.80623 112.82676 112.84564 123.10992 123.13350
 Alpha virt. eigenvalues --  123.18287 162.91352 162.96608 163.00968 163.04905
 Alpha virt. eigenvalues --  163.07326 163.08047 257.09386 282.44811 282.49986
 Alpha virt. eigenvalues --  282.53953 428.66984 428.70888 428.73607 772.78308
 Alpha virt. eigenvalues -- 1043.616871043.661261043.696142068.394635495.20550
 Alpha virt. eigenvalues -- 5634.475335634.536085634.58165********************
          Condensed to atoms (all electrons):
               1          2          3          4          5          6
     1  Pt  78.132419  -0.068072   0.010469   0.044874   0.028505   0.050796
     2  N   -0.068072   5.872574   0.015864   0.601302   0.613951  -0.006259
     3  N    0.010469   0.015864   5.895908   0.001690  -0.000359   0.612730
     4  O    0.044874   0.601302   0.001690   7.542759  -0.074894  -0.004194
     5  O    0.028505   0.613951  -0.000359  -0.074894   7.514977  -0.000003
     6  O    0.050796  -0.006259   0.612730  -0.004194  -0.000003   7.535255
     7  O    0.055718  -0.001295   0.592902   0.000402   0.000003  -0.081568
     8  Br   0.039224  -0.003473  -0.018737  -0.004880  -0.014041  -0.000153
     9  Br  -0.018964  -0.002362  -0.012706  -0.015442  -0.002777  -0.018729
    10  Br  -0.035746  -0.015775  -0.024035   0.001620   0.001436  -0.000262
    11  N   -0.006068   0.006474  -0.009803  -0.000440   0.002601   0.000193
    12  O    0.047182  -0.000837   0.000145   0.000426  -0.005420  -0.000003
    13  O    0.071067  -0.001036   0.000286  -0.000003   0.000944   0.000000
               7          8          9         10         11         12
     1  Pt   0.055718   0.039224  -0.018964  -0.035746  -0.006068   0.047182
     2  N   -0.001295  -0.003473  -0.002362  -0.015775   0.006474  -0.000837
     3  N    0.592902  -0.018737  -0.012706  -0.024035  -0.009803   0.000145
     4  O    0.000402  -0.004880  -0.015442   0.001620  -0.000440   0.000426
     5  O    0.000003  -0.014041  -0.002777   0.001436   0.002601  -0.005420
     6  O   -0.081568  -0.000153  -0.018729  -0.000262   0.000193  -0.000003
     7  O    7.551805  -0.014540  -0.001236  -0.010613   0.000340   0.000000
     8  Br  -0.014540  35.417383  -0.005824  -0.039683  -0.017480   0.000194
     9  Br  -0.001236  -0.005824  35.482154  -0.067607  -0.015403  -0.017547
    10  Br  -0.010613  -0.039683  -0.067607  35.605863  -0.018513   0.000031
    11  N    0.000340  -0.017480  -0.015403  -0.018513   5.910657   0.601070
    12  O    0.000000   0.000194  -0.017547   0.000031   0.601070   7.542153
    13  O   -0.000006  -0.012777  -0.000548  -0.016383   0.582456  -0.082044
              13
     1  Pt   0.071067
     2  N   -0.001036
     3  N    0.000286
     4  O   -0.000003
     5  O    0.000944
     6  O    0.000000
     7  O   -0.000006
     8  Br  -0.012777
     9  Br  -0.000548
    10  Br  -0.016383
    11  N    0.582456
    12  O   -0.082044
    13  O    7.563387
 Mulliken charges:
               1
     1  Pt  -0.351403
     2  N   -0.011055
     3  N   -0.064354
     4  O   -0.093221
     5  O   -0.064922
     6  O   -0.087800
     7  O   -0.091912
     8  Br  -0.325215
     9  Br  -0.303010
    10  Br  -0.380331
    11  N   -0.036084
    12  O   -0.085351
    13  O   -0.105343
 Sum of Mulliken charges =  -2.00000
 Mulliken charges with hydrogens summed into heavy atoms:
               1
     1  Pt  -0.351403
     2  N   -0.011055
     3  N   -0.064354
     4  O   -0.093221
     5  O   -0.064922
     6  O   -0.087800
     7  O   -0.091912
     8  Br  -0.325215
     9  Br  -0.303010
    10  Br  -0.380331
    11  N   -0.036084
    12  O   -0.085351
    13  O   -0.105343
 Electronic spatial extent (au):  <R**2>=           4616.4027
 Charge=             -2.0000 electrons
 Dipole moment (field-independent basis, Debye):
    X=              0.0417    Y=             -0.7190    Z=              0.1506  Tot=              0.7357
 Quadrupole moment (field-independent basis, Debye-Ang):
   XX=           -169.2306   YY=           -169.5007   ZZ=           -173.0849
   XY=              3.2124   XZ=             -1.9286   YZ=             -1.4073
 Traceless Quadrupole moment (field-independent basis, Debye-Ang):
   XX=              1.3748   YY=              1.1047   ZZ=             -2.4795
   XY=              3.2124   XZ=             -1.9286   YZ=             -1.4073
 Octapole moment (field-independent basis, Debye-Ang**2):
  XXX=             -1.3387  YYY=             33.0038  ZZZ=             -4.1915  XYY=              0.0485
  XXY=             10.5446  XXZ=             -3.2641  XZZ=             -1.7263  YZZ=             12.2967
  YYZ=              2.5269  XYZ=              4.6226
 Hexadecapole moment (field-independent basis, Debye-Ang**3):
 XXXX=          -1963.0329 YYYY=          -1890.7762 ZZZZ=          -1824.4618 XXXY=              4.7280
 XXXZ=             -4.5186 YYYX=             11.3190 YYYZ=             -2.4790 ZZZX=            -20.6191
 ZZZY=            -35.0221 XXYY=           -606.1588 XXZZ=           -597.8925 YYZZ=           -569.3550
 XXYZ=             -2.7075 YYXZ=            -10.2535 ZZXY=             33.6244
 N-N= 4.688219081298D+03 E-N=-6.980751045365D+04  KE= 2.509664223042D+04
 Calculating spin-rotation constants.
 Leave Link  601 at Sat Oct 30 06:29:46 2021, MaxMem=  2013265920 cpu:         9.2
 (Enter /scr/programas/g09/l9999.exe)
 1\1\GINC-NQTCM04\SP\RPBEPBE\Gen\Br3N3O6Pt1(2-)\DIEGO\30-Oct-2021\0\\#P
 BEPBE/gen scf=maxcycle=200 NMR=GIAO Scrf=(solvent=water)\\estrutura 55
 \\-2,1\Pt,0,-0.00482,0.125103,0.017442\N,0,-0.070464,2.233901,0.194472
 \N,0,-0.052695,-0.123565,2.146512\O,0,-0.698151,2.730625,1.108151\O,0,
 0.540619,2.882314,-0.633561\O,0,-0.979974,0.354289,2.776857\O,0,0.8440
 82,-0.757289,2.680813\Br,0,2.532156,0.31193,0.091448\Br,0,-2.543276,-0
 .008123,-0.099549\Br,0,0.090861,-2.442021,-0.203796\N,0,0.031161,0.334
 676,-2.106404\O,0,-0.719852,1.14703,-2.622725\O,0,0.791897,-0.361421,-
 2.757802\\Version=EM64L-G09RevD.01\State=1-A\HF=-25430.501633\RMSD=5.7
 19e-09\Dipole=-0.0163983,0.2828609,0.0592325\Quadrupole=1.0221552,0.82
 1299,-1.8434541,2.3883218,1.4338714,1.0463206\PG=C01 [X(Br3N3O6Pt1)]\\
 @


 Where a calculator on the ENIAC is equipped with 18,000
 vacuum tubes and weighs 30 tons, computers inthe future
 may  have only 1,000 vacuum tubes and weigh only 1 1/2 tons.
              ---Popular Mechanics, March 1949
 Job cpu time:       0 days  2 hours  0 minutes 32.9 seconds.
 File lengths (MBytes):  RWF=    241 Int=      0 D2E=      0 Chk=     19 Scr=      1
 Normal termination of Gaussian 09 at Sat Oct 30 06:29:46 2021.
