 Entering Gaussian System, Link 0=g09
 Input=estrutura11freq_LANL2DZ_TZVP.com
 Output=estrutura11freq_LANL2DZ_TZVP.log
 Initial command:
 /scr/programas/g09/l1.exe "/scr/diego/Gau-4866.inp" -scrdir="/scr/diego/"
 Entering Link 1 = /scr/programas/g09/l1.exe PID=      4868.
  
 Copyright (c) 1988,1990,1992,1993,1995,1998,2003,2009,2013,
            Gaussian, Inc.  All Rights Reserved.
  
 This is part of the Gaussian(R) 09 program.  It is based on
 the Gaussian(R) 03 system (copyright 2003, Gaussian, Inc.),
 the Gaussian(R) 98 system (copyright 1998, Gaussian, Inc.),
 the Gaussian(R) 94 system (copyright 1995, Gaussian, Inc.),
 the Gaussian 92(TM) system (copyright 1992, Gaussian, Inc.),
 the Gaussian 90(TM) system (copyright 1990, Gaussian, Inc.),
 the Gaussian 88(TM) system (copyright 1988, Gaussian, Inc.),
 the Gaussian 86(TM) system (copyright 1986, Carnegie Mellon
 University), and the Gaussian 82(TM) system (copyright 1983,
 Carnegie Mellon University). Gaussian is a federally registered
 trademark of Gaussian, Inc.
  
 This software contains proprietary and confidential information,
 including trade secrets, belonging to Gaussian, Inc.
  
 This software is provided under written license and may be
 used, copied, transmitted, or stored only in accord with that
 written license.
  
 The following legend is applicable only to US Government
 contracts under FAR:
  
                    RESTRICTED RIGHTS LEGEND
  
 Use, reproduction and disclosure by the US Government is
 subject to restrictions as set forth in subparagraphs (a)
 and (c) of the Commercial Computer Software - Restricted
 Rights clause in FAR 52.227-19.
  
 Gaussian, Inc.
 340 Quinnipiac St., Bldg. 40, Wallingford CT 06492
  
  
 ---------------------------------------------------------------
 Warning -- This program may not be used in any manner that
 competes with the business of Gaussian, Inc. or will provide
 assistance to any competitor of Gaussian, Inc.  The licensee
 of this program is prohibited from giving any competitor of
 Gaussian, Inc. access to this program.  By using this program,
 the user acknowledges that Gaussian, Inc. is engaged in the
 business of creating and licensing software in the field of
 computational chemistry and represents and warrants to the
 licensee that it is not a competitor of Gaussian, Inc. and that
 it will not use this program in any manner prohibited above.
 ---------------------------------------------------------------
  

 Cite this work as:
 Gaussian 09, Revision D.01,
 M. J. Frisch, G. W. Trucks, H. B. Schlegel, G. E. Scuseria, 
 M. A. Robb, J. R. Cheeseman, G. Scalmani, V. Barone, B. Mennucci, 
 G. A. Petersson, H. Nakatsuji, M. Caricato, X. Li, H. P. Hratchian, 
 A. F. Izmaylov, J. Bloino, G. Zheng, J. L. Sonnenberg, M. Hada, 
 M. Ehara, K. Toyota, R. Fukuda, J. Hasegawa, M. Ishida, T. Nakajima, 
 Y. Honda, O. Kitao, H. Nakai, T. Vreven, J. A. Montgomery, Jr., 
 J. E. Peralta, F. Ogliaro, M. Bearpark, J. J. Heyd, E. Brothers, 
 K. N. Kudin, V. N. Staroverov, T. Keith, R. Kobayashi, J. Normand, 
 K. Raghavachari, A. Rendell, J. C. Burant, S. S. Iyengar, J. Tomasi, 
 M. Cossi, N. Rega, J. M. Millam, M. Klene, J. E. Knox, J. B. Cross, 
 V. Bakken, C. Adamo, J. Jaramillo, R. Gomperts, R. E. Stratmann, 
 O. Yazyev, A. J. Austin, R. Cammi, C. Pomelli, J. W. Ochterski, 
 R. L. Martin, K. Morokuma, V. G. Zakrzewski, G. A. Voth, 
 P. Salvador, J. J. Dannenberg, S. Dapprich, A. D. Daniels, 
 O. Farkas, J. B. Foresman, J. V. Ortiz, J. Cioslowski, 
 and D. J. Fox, Gaussian, Inc., Wallingford CT, 2013.
 
 ******************************************
 Gaussian 09:  EM64L-G09RevD.01 24-Apr-2013
                29-Oct-2021 
 ******************************************
 %mem=15Gb
 %nproc=4
 Will use up to    4 processors via shared memory.
 ----------------------------------------------------------
 #PBEPBE/gen scf=maxcycle=200 NMR=GIAO Scrf=(solvent=water)
 ----------------------------------------------------------
 1/38=1/1;
 2/12=2,17=6,18=5,40=1/2;
 3/5=7,11=2,16=1,25=1,30=1,70=2201,72=1,74=1009/1,2,8,3;
 4//1;
 5/5=2,7=200,38=5,53=1/2;
 8/6=1,10=90,11=11/1;
 10/13=100,45=16/2;
 6/7=2,8=2,9=2,10=2,28=1/1;
 99/9=1/99;
 Leave Link    1 at Fri Oct 29 23:20:33 2021, MaxMem=  2013265920 cpu:         0.2
 (Enter /scr/programas/g09/l101.exe)
 ------------
 estrutura 11
 ------------
 Symbolic Z-matrix:
 Charge = -2 Multiplicity = 1
 Pt                    0.        0.        0. 
 Br                    0.        0.        2.49727 
 Br                    0.        2.49727   0. 
 Br                    2.49727   0.        0. 
 Br                    0.        0.       -2.49727 
 Br                    0.       -2.49727   0. 
 Br                   -2.49727   0.        0. 
 
 NAtoms=      7 NQM=        7 NQMF=       0 NMMI=      0 NMMIF=      0
                NMic=       0 NMicF=      0.
                    Isotopes and Nuclear Properties:
 (Nuclear quadrupole moments (NQMom) in fm**2, nuclear magnetic moments (NMagM)
  in nuclear magnetons)

  Atom         1           2           3           4           5           6           7
 IAtWgt=         195          79          79          79          79          79          79
 AtmWgt= 194.9648000  78.9183361  78.9183361  78.9183361  78.9183361  78.9183361  78.9183361
 NucSpn=           1           3           3           3           3           3           3
 AtZEff=   0.0000000   0.0000000   0.0000000   0.0000000   0.0000000   0.0000000   0.0000000
 NQMom=    0.0000000  31.3000000  31.3000000  31.3000000  31.3000000  31.3000000  31.3000000
 NMagM=    0.6095000   2.1063990   2.1063990   2.1063990   2.1063990   2.1063990   2.1063990
 AtZNuc=  78.0000000  35.0000000  35.0000000  35.0000000  35.0000000  35.0000000  35.0000000
 Leave Link  101 at Fri Oct 29 23:20:33 2021, MaxMem=  2013265920 cpu:         0.4
 (Enter /scr/programas/g09/l202.exe)
                          Input orientation:                          
 ---------------------------------------------------------------------
 Center     Atomic      Atomic             Coordinates (Angstroms)
 Number     Number       Type             X           Y           Z
 ---------------------------------------------------------------------
      1         78           0        0.000000    0.000000    0.000000
      2         35           0        0.000000    0.000000    2.497266
      3         35           0        0.000000    2.497266    0.000000
      4         35           0        2.497266    0.000000    0.000000
      5         35           0        0.000000    0.000000   -2.497266
      6         35           0        0.000000   -2.497266    0.000000
      7         35           0       -2.497266    0.000000    0.000000
 ---------------------------------------------------------------------
                    Distance matrix (angstroms):
                    1          2          3          4          5
     1  Pt   0.000000
     2  Br   2.497266   0.000000
     3  Br   2.497266   3.531667   0.000000
     4  Br   2.497266   3.531667   3.531667   0.000000
     5  Br   2.497266   4.994532   3.531667   3.531667   0.000000
     6  Br   2.497266   3.531667   4.994532   3.531667   3.531667
     7  Br   2.497266   3.531667   3.531667   4.994532   3.531667
                    6          7
     6  Br   0.000000
     7  Br   3.531667   0.000000
 Stoichiometry    Br6Pt(2-)
 Framework group  OH[O(Pt),3C4(Br.Br)]
 Deg. of freedom     1
 Full point group                 OH      NOp  48
 Largest Abelian subgroup         D2H     NOp   8
 Largest concise Abelian subgroup D2H     NOp   8
                         Standard orientation:                         
 ---------------------------------------------------------------------
 Center     Atomic      Atomic             Coordinates (Angstroms)
 Number     Number       Type             X           Y           Z
 ---------------------------------------------------------------------
      1         78           0        0.000000    0.000000    0.000000
      2         35           0        0.000000    0.000000    2.497266
      3         35           0        0.000000    2.497266    0.000000
      4         35           0        2.497266    0.000000    0.000000
      5         35           0        0.000000    0.000000   -2.497266
      6         35           0        0.000000   -2.497266    0.000000
      7         35           0       -2.497266    0.000000    0.000000
 ---------------------------------------------------------------------
 Rotational constants (GHZ):      0.2567141      0.2567141      0.2567141
 Leave Link  202 at Fri Oct 29 23:20:33 2021, MaxMem=  2013265920 cpu:         0.0
 (Enter /scr/programas/g09/l301.exe)
 General basis read from cards:  (5D, 7F)
 Centers:       2      3      4      5      6      7
 S 7 1.00
     Exponent=  3.4867099512D+05 Coefficients=  2.4100000000D-03
     Exponent=  1.3946839805D+05 Coefficients=  1.2000000000D-04
     Exponent=  5.5787359218D+04 Coefficients=  5.8500000000D-03
     Exponent=  2.2314943687D+04 Coefficients=  8.2100000000D-03
     Exponent=  8.9259774750D+03 Coefficients=  2.4090000000D-02
     Exponent=  3.5703909900D+03 Coefficients=  5.7250000000D-02
     Exponent=  1.4281563960D+03 Coefficients=  1.4467000000D-01
 S 1 1.00
     Exponent=  5.7126255840D+02 Coefficients=  1.0000000000D+00
 S 1 1.00
     Exponent=  2.2850502336D+02 Coefficients=  1.0000000000D+00
 S 1 1.00
     Exponent=  9.1402009344D+01 Coefficients=  1.0000000000D+00
 S 1 1.00
     Exponent=  3.6560803737D+01 Coefficients=  1.0000000000D+00
 S 1 1.00
     Exponent=  1.4624321495D+01 Coefficients=  1.0000000000D+00
 S 1 1.00
     Exponent=  5.8497285980D+00 Coefficients=  1.0000000000D+00
 S 1 1.00
     Exponent=  2.3398914392D+00 Coefficients=  1.0000000000D+00
 S 1 1.00
     Exponent=  9.3595657568D-01 Coefficients=  1.0000000000D+00
 S 1 1.00
     Exponent=  3.7438263027D-01 Coefficients=  1.0000000000D+00
 S 1 1.00
     Exponent=  1.4975305211D-01 Coefficients=  1.0000000000D+00
 S 1 1.00
     Exponent=  5.9901220843D-02 Coefficients=  1.0000000000D+00
 P 5 1.00
     Exponent=  4.2715043612D+03 Coefficients=  2.0900000000D-03
     Exponent=  1.5532743132D+03 Coefficients=  5.5700000000D-03
     Exponent=  5.6482702297D+02 Coefficients=  3.0250000000D-02
     Exponent=  2.0539164472D+02 Coefficients=  1.2196000000D-01
     Exponent=  7.4687870806D+01 Coefficients=  3.7861000000D-01
 P 1 1.00
     Exponent=  2.7159225748D+01 Coefficients=  1.0000000000D+00
 P 1 1.00
     Exponent=  9.8760820901D+00 Coefficients=  1.0000000000D+00
 P 1 1.00
     Exponent=  3.5913025782D+00 Coefficients=  1.0000000000D+00
 P 1 1.00
     Exponent=  1.3059282103D+00 Coefficients=  1.0000000000D+00
 P 1 1.00
     Exponent=  4.7488298555D-01 Coefficients=  1.0000000000D+00
 P 1 1.00
     Exponent=  1.7268472202D-01 Coefficients=  1.0000000000D+00
 P 1 1.00
     Exponent=  6.2794444370D-02 Coefficients=  1.0000000000D+00
 P 1 1.00
     Exponent=  2.2834343407D-02 Coefficients=  1.0000000000D+00
 D 4 1.00
     Exponent=  1.5776624282D+02 Coefficients=  7.9800000000D-03
     Exponent=  5.2588747607D+01 Coefficients=  4.9870000000D-02
     Exponent=  1.7529582536D+01 Coefficients=  2.2405000000D-01
     Exponent=  5.8431941786D+00 Coefficients=  4.4250000000D-01
 D 1 1.00
     Exponent=  1.9477313929D+00 Coefficients=  1.0000000000D+00
 D 1 1.00
     Exponent=  6.4924379762D-01 Coefficients=  1.0000000000D+00
 F 1 1.00
     Exponent=  1.6480000000D+00 Coefficients=  1.0000000000D+00
 F 1 1.00
     Exponent=  4.5490000000D-01 Coefficients=  1.0000000000D+00
 ****
 Centers:       1
 S 9 1.00
     Exponent=  2.1644816090D+06 Coefficients=  1.2320000000D-02
     Exponent=  1.0822408045D+06 Coefficients=  1.2970000000D-02
     Exponent=  5.4112040224D+05 Coefficients=  2.6370000000D-02
     Exponent=  2.7056020112D+05 Coefficients=  9.0400000000D-03
     Exponent=  1.3528010056D+05 Coefficients=  3.4980000000D-02
     Exponent=  6.7640050280D+04 Coefficients=  1.2220000000D-02
     Exponent=  3.3820025140D+04 Coefficients=  6.0520000000D-02
     Exponent=  1.6910012570D+04 Coefficients=  6.4930000000D-02
     Exponent=  8.4550062850D+03 Coefficients=  1.3819000000D-01
 S 1 1.00
     Exponent=  4.2275031425D+03 Coefficients=  1.0000000000D+00
 S 1 1.00
     Exponent=  2.1137515713D+03 Coefficients=  1.0000000000D+00
 S 1 1.00
     Exponent=  1.0568757856D+03 Coefficients=  1.0000000000D+00
 S 1 1.00
     Exponent=  5.2843789281D+02 Coefficients=  1.0000000000D+00
 S 1 1.00
     Exponent=  2.6421894641D+02 Coefficients=  1.0000000000D+00
 S 1 1.00
     Exponent=  1.3210947320D+02 Coefficients=  1.0000000000D+00
 S 1 1.00
     Exponent=  6.6054736602D+01 Coefficients=  1.0000000000D+00
 S 1 1.00
     Exponent=  3.3027368301D+01 Coefficients=  1.0000000000D+00
 S 1 1.00
     Exponent=  1.6513684150D+01 Coefficients=  1.0000000000D+00
 S 1 1.00
     Exponent=  8.2568420752D+00 Coefficients=  1.0000000000D+00
 S 1 1.00
     Exponent=  4.1284210376D+00 Coefficients=  1.0000000000D+00
 S 1 1.00
     Exponent=  2.0642105188D+00 Coefficients=  1.0000000000D+00
 S 1 1.00
     Exponent=  1.0321052594D+00 Coefficients=  1.0000000000D+00
 S 1 1.00
     Exponent=  5.1605262970D-01 Coefficients=  1.0000000000D+00
 S 1 1.00
     Exponent=  2.5802631485D-01 Coefficients=  1.0000000000D+00
 S 1 1.00
     Exponent=  1.2901315743D-01 Coefficients=  1.0000000000D+00
 S 1 1.00
     Exponent=  6.4506578713D-02 Coefficients=  1.0000000000D+00
 P 7 1.00
     Exponent=  3.2357915258D+04 Coefficients=  5.0200000000D-03
     Exponent=  1.4381295670D+04 Coefficients=  2.0200000000D-03
     Exponent=  6.3916869645D+03 Coefficients=  1.8070000000D-02
     Exponent=  2.8407497620D+03 Coefficients=  3.6620000000D-02
     Exponent=  1.2625554498D+03 Coefficients=  1.1172000000D-01
     Exponent=  5.6113575545D+02 Coefficients=  2.5586000000D-01
     Exponent=  2.4939366909D+02 Coefficients=  4.2608000000D-01
 P 1 1.00
     Exponent=  1.1084163071D+02 Coefficients=  1.0000000000D+00
 P 1 1.00
     Exponent=  4.9262946981D+01 Coefficients=  1.0000000000D+00
 P 1 1.00
     Exponent=  2.1894643103D+01 Coefficients=  1.0000000000D+00
 P 1 1.00
     Exponent=  9.7309524900D+00 Coefficients=  1.0000000000D+00
 P 1 1.00
     Exponent=  4.3248677733D+00 Coefficients=  1.0000000000D+00
 P 1 1.00
     Exponent=  1.9221634548D+00 Coefficients=  1.0000000000D+00
 P 1 1.00
     Exponent=  8.5429486881D-01 Coefficients=  1.0000000000D+00
 P 1 1.00
     Exponent=  3.7968660836D-01 Coefficients=  1.0000000000D+00
 P 1 1.00
     Exponent=  1.6874960372D-01 Coefficients=  1.0000000000D+00
 P 1 1.00
     Exponent=  7.4999823874D-02 Coefficients=  1.0000000000D+00
 P 1 1.00
     Exponent=  3.3333255055D-02 Coefficients=  1.0000000000D+00
 D 5 1.00
     Exponent=  1.9119003508D+03 Coefficients=  4.3300000000D-03
     Exponent=  7.6476014031D+02 Coefficients=  1.7780000000D-02
     Exponent=  3.0590405613D+02 Coefficients=  8.9710000000D-02
     Exponent=  1.2236162245D+02 Coefficients=  3.1123000000D-01
     Exponent=  4.8944648980D+01 Coefficients=  5.3206000000D-01
 D 1 1.00
     Exponent=  1.9577859592D+01 Coefficients=  1.0000000000D+00
 D 1 1.00
     Exponent=  7.8311438368D+00 Coefficients=  1.0000000000D+00
 D 1 1.00
     Exponent=  3.1324575347D+00 Coefficients=  1.0000000000D+00
 D 1 1.00
     Exponent=  1.2529830139D+00 Coefficients=  1.0000000000D+00
 D 1 1.00
     Exponent=  5.0119320556D-01 Coefficients=  1.0000000000D+00
 D 1 1.00
     Exponent=  2.0047728222D-01 Coefficients=  1.0000000000D+00
 D 1 1.00
     Exponent=  8.0190912889D-02 Coefficients=  1.0000000000D+00
 D 1 1.00
     Exponent=  3.2076365156D-02 Coefficients=  1.0000000000D+00
 F 4 1.00
     Exponent=  8.2289680979D+01 Coefficients=  6.1870000000D-02
     Exponent=  2.9923520356D+01 Coefficients=  2.4823000000D-01
     Exponent=  1.0881280130D+01 Coefficients=  4.9956000000D-01
     Exponent=  3.9568291380D+00 Coefficients=  4.0380000000D-01
 F 1 1.00
     Exponent=  1.4388469593D+00 Coefficients=  1.0000000000D+00
 F 1 1.00
     Exponent=  5.2321707610D-01 Coefficients=  1.0000000000D+00
 G 1 1.00
     Exponent=  2.6700000000D+00 Coefficients=  1.0000000000D+00
 G 1 1.00
     Exponent=  9.0960000000D-01 Coefficients=  1.0000000000D+00
 ****
 Ernie: Thresh=  0.10000D-02 Tol=  0.10000D-05 Strict=F.
 There are   165 symmetry adapted cartesian basis functions of AG  symmetry.
 There are    56 symmetry adapted cartesian basis functions of B1G symmetry.
 There are    56 symmetry adapted cartesian basis functions of B2G symmetry.
 There are    56 symmetry adapted cartesian basis functions of B3G symmetry.
 There are    18 symmetry adapted cartesian basis functions of AU  symmetry.
 There are    93 symmetry adapted cartesian basis functions of B1U symmetry.
 There are    93 symmetry adapted cartesian basis functions of B2U symmetry.
 There are    93 symmetry adapted cartesian basis functions of B3U symmetry.
 There are   135 symmetry adapted basis functions of AG  symmetry.
 There are    50 symmetry adapted basis functions of B1G symmetry.
 There are    50 symmetry adapted basis functions of B2G symmetry.
 There are    50 symmetry adapted basis functions of B3G symmetry.
 There are    18 symmetry adapted basis functions of AU  symmetry.
 There are    81 symmetry adapted basis functions of B1U symmetry.
 There are    81 symmetry adapted basis functions of B2U symmetry.
 There are    81 symmetry adapted basis functions of B3U symmetry.
   546 basis functions,   926 primitive gaussians,   630 cartesian basis functions
   145 alpha electrons      145 beta electrons
       nuclear repulsion energy      6062.9513433273 Hartrees.
 IExCor= 1009 DFT=T Ex=PBE Corr=PBE ExCW=0 ScaHFX=  0.000000
 ScaDFX=  1.000000  1.000000  1.000000  1.000000 ScalE2=  1.000000  1.000000
 IRadAn=      0 IRanWt=     -1 IRanGd=            0 ICorTp=0 IEmpDi=  4
 NAtoms=    7 NActive=    7 NUniq=    2 SFac= 4.00D+00 NAtFMM=   60 NAOKFM=F Big=F
 Integral buffers will be    131072 words long.
 Raffenetti 2 integral format.
 Two-electron integral symmetry is turned on.
 ------------------------------------------------------------------------------
 Polarizable Continuum Model (PCM)
 =================================
 Model                : PCM (using non-symmetric T matrix).
 Atomic radii         : UFF (Universal Force Field).
 Polarization charges : Total charges.
 Charge compensation  : None.
 Solution method      : On-the-fly selection.
 Cavity type          : Scaled VdW (van der Waals Surface) (Alpha=1.100).
 Cavity algorithm     : GePol (No added spheres)
                        Default sphere list used, NSphG=    7.
                        Lebedev-Laikov grids with approx.  5.0 points / Ang**2.
                        Smoothing algorithm: Karplus/York (Gamma=1.0000).
                        Polarization charges: spherical gaussians, with
                                              point-specific exponents (IZeta= 3).
                        Self-potential: point-specific (ISelfS= 7).
                        Self-field    : sphere-specific E.n sum rule (ISelfD= 2).
 Solvent              : Water, Eps=  78.355300 Eps(inf)=   1.777849
 ------------------------------------------------------------------------------
 Spheres list:
 ISph  on   Nord     Re0    Alpha      Xe            Ye            Ze
    1  Pt      1    1.3770  1.100      0.000000      0.000000      0.000000
    2  Br      2    2.0945  1.100      0.000000      0.000000      2.497266
    3  Br      3    2.0945  1.100      0.000000      2.497266      0.000000
    4  Br      4    2.0945  1.100      2.497266      0.000000      0.000000
    5  Br      5    2.0945  1.100      0.000000      0.000000     -2.497266
    6  Br      6    2.0945  1.100      0.000000     -2.497266      0.000000
    7  Br      7    2.0945  1.100     -2.497266      0.000000      0.000000
 ------------------------------------------------------------------------------
 GePol: Number of generator spheres                  =       7
 GePol: Total number of spheres                      =       7
 GePol: Number of exposed spheres                    =       6 ( 85.71%)
 GePol: Number of points                             =    1662
 GePol: Average weight of points                     =       0.15
 GePol: Minimum weight of points                     =   0.35D-01
 GePol: Maximum weight of points                     =    0.16998
 GePol: Number of points with low weight             =       0
 GePol: Fraction of low-weight points (<1% of avg)   =       0.00%
 GePol: Cavity surface area                          =    245.011 Ang**2
 GePol: Cavity volume                                =    265.943 Ang**3
 Leave Link  301 at Fri Oct 29 23:20:33 2021, MaxMem=  2013265920 cpu:         0.5
 (Enter /scr/programas/g09/l302.exe)
 NPDir=0 NMtPBC=     1 NCelOv=     1 NCel=       1 NClECP=     1 NCelD=      1
         NCelK=      1 NCelE2=     1 NClLst=     1 CellRange=     0.0.
 One-electron integrals computed using PRISM.
 One-electron integral symmetry used in STVInt
 NBasis=   546 RedAO= T EigKep=  2.62D-04  NBF=   135    50    50    50    18    81    81    81
 NBsUse=   546 1.00D-06 EigRej= -1.00D+00 NBFU=   135    50    50    50    18    81    81    81
 Precomputing XC quadrature grid using
 IXCGrd= 4 IRadAn=           0 IRanWt=          -1 IRanGd=           0 AccXCQ= 0.00D+00.
 Defaulting to unpruned grid for atomic number  78.
 Generated NRdTot=       0 NPtTot=           0 NUsed=           0 NTot=          32
 NSgBfM=   549   549   549   549   549 MxSgAt=     7 MxSgA2=     7.
 Leave Link  302 at Fri Oct 29 23:20:35 2021, MaxMem=  2013265920 cpu:         6.2
 (Enter /scr/programas/g09/l308.exe)
 Leave Link  308 at Fri Oct 29 23:20:35 2021, MaxMem=  2013265920 cpu:         0.6
 (Enter /scr/programas/g09/l303.exe)
 DipDrv:  MaxL=1.
 Leave Link  303 at Fri Oct 29 23:20:35 2021, MaxMem=  2013265920 cpu:         0.4
 (Enter /scr/programas/g09/l401.exe)
 ExpMin= 2.28D-02 ExpMax= 2.16D+06 ExpMxC= 2.16D+06 IAcc=4 IRadAn=    199590 AccDes= 0.00D+00
 Harris functional with IExCor= 1009 and IRadAn=  199590 diagonalized for initial guess.
 HarFok:  IExCor= 1009 AccDes= 0.00D+00 IRadAn=    199590 IDoV= 1 UseB2=F ITyADJ=14
 ICtDFT=  3500011 ScaDFX=  1.000000  1.000000  1.000000  1.000000
 FoFCou: FMM=F IPFlag=           0 FMFlag=      100000 FMFlg1=           0
         NFxFlg=           0 DoJE=T BraDBF=F KetDBF=T FulRan=T
         wScrn=  0.000000 ICntrl=     500 IOpCl=  0 I1Cent=   200000004 NGrid=           0
         NMat0=    1 NMatS0=      1 NMatT0=    0 NMatD0=    1 NMtDS0=    0 NMtDT0=    0
 Petite list used in FoFCou.
 Harris En= -32532.5066904109    
 JPrj=0 DoOrth=F DoCkMO=F.
 Initial guess orbital symmetries:
       Occupied  (A1G) (EG) (EG) (T1U) (T1U) (T1U) (A1G) (A1G)
                 (T1U) (T1U) (T1U) (A1G) (T1U) (T1U) (T1U) (EG)
                 (EG) (T2G) (T2G) (T2G) (EG) (EG) (T1U) (T1U) (T1U)
                 (A1G) (T1G) (T1G) (T1G) (T1U) (T1U) (T1U) (T2G)
                 (T2G) (T2G) (T2U) (T2U) (T2U) (EG) (EG) (T1U)
                 (T1U) (T1U) (A1G) (A1G) (T1U) (T1U) (T1U) (EG)
                 (EG) (T2G) (T2G) (T2G) (EG) (EG) (T1U) (T1U) (T1U)
                 (A1G) (EG) (EG) (T1U) (T1U) (T1U) (A1G) (T1G)
                 (T1G) (T1G) (T1U) (T1U) (T1U) (T2G) (T2G) (T2G)
                 (T2U) (T2U) (T2U) (A1G) (T1U) (T1U) (T1U) (EG)
                 (EG) (A1G) (T2G) (T2G) (T2G) (T1U) (T1U) (T1U)
                 (T2U) (T2U) (T2U) (T1G) (T1G) (T1G) (EG) (EG)
                 (T2U) (T2U) (T2U) (A2U) (T2G) (T2G) (T2G) (A2G)
                 (EU) (EU) (T1U) (T1U) (T1U) (T2U) (T2U) (T2U)
                 (A2U) (T1U) (T1U) (T1U) (A1G) (T1U) (T1U) (T1U)
                 (EG) (EG) (A1G) (T2G) (T2G) (T2G) (EG) (EG) (T1U)
                 (T1U) (T1U) (T2U) (T2U) (T2U) (T1U) (T1U) (T1U)
                 (T1G) (T1G) (T1G) (T2G) (T2G) (T2G)
       Virtual   (EG) (EG) (A1G) (T1U) (T1U) (T1U) (EG) (EG) (A1G)
                 (T2G) (T2G) (T2G) (T1U) (T1U) (T1U) (T2U) (T2U)
                 (T2U) (EG) (EG) (T1U) (T1U) (T1U) (A1G) (T1G)
                 (T1G) (T1G) (T2G) (T2G) (T2G) (T1U) (T1U) (T1U)
                 (T1U) (T1U) (T1U) (T2G) (T2G) (T2G) (EG) (EG)
                 (T2U) (T2U) (T2U) (A1G) (T1G) (T1G) (T1G) (T1U)
                 (T1U) (T1U) (EG) (EG) (T2G) (T2G) (T2G) (T1U)
                 (T1U) (T1U) (EG) (EG) (A1G) (T1U) (T1U) (T1U)
                 (EG) (EG) (T2G) (T2G) (T2G) (A1G) (T2U) (T2U)
                 (T2U) (T1U) (T1U) (T1U) (A1G) (EG) (EG) (T1U)
                 (T1U) (T1U) (T2G) (T2G) (T2G) (T2U) (T2U) (T2U)
                 (A2U) (EU) (EU) (A2G) (T1U) (T1U) (T1U) (T1G)
                 (T1G) (T1G) (T2G) (T2G) (T2G) (T2U) (T2U) (T2U)
                 (T1G) (T1G) (T1G) (EG) (EG) (T1U) (T1U) (T1U)
                 (A2U) (T2U) (T2U) (T2U) (T2G) (T2G) (T2G) (T1U)
                 (T1U) (T1U) (A1G) (T1U) (T1U) (T1U) (T2U) (T2U)
                 (T2U) (T1G) (T1G) (T1G) (T2G) (T2G) (T2G) (EU)
                 (EU) (EG) (EG) (T1G) (T1G) (T1G) (T2U) (T2U) (T2U)
                 (EG) (EG) (A2G) (T2G) (T2G) (T2G) (T1U) (T1U)
                 (T1U) (A2U) (EG) (EG) (T1U) (T1U) (T1U) (A1G)
                 (T2U) (T2U) (T2U) (T2G) (T2G) (T2G) (A1G) (EG)
                 (EG) (T1U) (T1U) (T1U) (T1U) (T1U) (T1U) (T2G)
                 (T2G) (T2G) (A1G) (EG) (EG) (EG) (EG) (T2G) (T2G)
                 (T2G) (T1U) (T1U) (T1U) (T1G) (T1G) (T1G) (A1G)
                 (A1G) (EG) (EG) (T1U) (T1U) (T1U) (A2U) (T2U)
                 (T2U) (T2U) (T2U) (T2U) (T2U) (T2G) (T2G) (T2G)
                 (T1U) (T1U) (T1U) (T1G) (T1G) (T1G) (A1G) (EG)
                 (EG) (T1U) (T1U) (T1U) (T2G) (T2G) (T2G) (T2U)
                 (T2U) (T2U) (EU) (EU) (T1G) (T1G) (T1G) (T2G)
                 (T2G) (T2G) (A2G) (T2U) (T2U) (T2U) (A2U) (T1G)
                 (T1G) (T1G) (T1U) (T1U) (T1U) (T1U) (T1U) (T1U)
                 (EG) (EG) (T2G) (T2G) (T2G) (T2U) (T2U) (T2U)
                 (EG) (EG) (T1U) (T1U) (T1U) (A1G) (EU) (EU) (A2G)
                 (A2U) (T1U) (T1U) (T1U) (T2U) (T2U) (T2U) (T2G)
                 (T2G) (T2G) (T1G) (T1G) (T1G) (T2U) (T2U) (T2U)
                 (EG) (EG) (T1U) (T1U) (T1U) (T2G) (T2G) (T2G)
                 (A1G) (T1U) (T1U) (T1U) (EG) (EG) (T2G) (T2G)
                 (T2G) (T1G) (T1G) (T1G) (EG) (EG) (A1G) (A1G)
                 (T2G) (T2G) (T2G) (EG) (EG) (A1G) (T1U) (T1U)
                 (T1U) (EG) (EG) (T2U) (T2U) (T2U) (T1U) (T1U)
                 (T1U) (T2G) (T2G) (T2G) (T1G) (T1G) (T1G) (A1G)
                 (T1U) (T1U) (T1U) (EG) (EG) (T1U) (T1U) (T1U)
                 (A1G) (T2G) (T2G) (T2G) (EG) (EG) (A1G) (T1U)
                 (T1U) (T1U) (EG) (EG) (A1G) (T1U) (T1U) (T1U)
                 (T2U) (T2U) (T2U) (T1U) (T1U) (T1U) (T2G) (T2G)
                 (T2G) (T1G) (T1G) (T1G) (A1G) (T1U) (T1U) (T1U)
                 (EG) (EG) (A1G) (A1G) (T1U) (T1U) (T1U) (EG) (EG)
                 (T1U) (T1U) (T1U) (A1G) (A1G) (T1U) (T1U) (T1U)
                 (EG) (EG) (A1G) (A1G) (A1G) (T1U) (T1U) (T1U)
                 (EG) (EG) (A1G) (A1G)
 The electronic state of the initial guess is 1-A1G.
 Leave Link  401 at Fri Oct 29 23:20:38 2021, MaxMem=  2013265920 cpu:         9.5
 (Enter /scr/programas/g09/l502.exe)
 Closed shell SCF:
 Using DIIS extrapolation, IDIIS=  1040.
 Integral symmetry usage will be decided dynamically.
 IVT=     1254796 IEndB=     1254796 NGot=  2013265920 MDV=  2012449055
 LenX=  2012449055 LenY=  2012051525
 Requested convergence on RMS density matrix=1.00D-08 within 200 cycles.
 Requested convergence on MAX density matrix=1.00D-06.
 Requested convergence on             energy=1.00D-06.
 No special actions if energy rises.
 Fock matrices will be formed incrementally for  20 cycles.

 Cycle   1  Pass 1  IDiag  1:
 FoFJK:  IHMeth= 1 ICntrl=     500 DoSepK=F KAlg= 0 I1Cent=   0 FoldK=F
 IRaf= 710000000 NMat=   1 IRICut=       1 DoRegI=T DoRafI=F ISym2E= 1.
 FoFCou: FMM=F IPFlag=           0 FMFlag=      100000 FMFlg1=           0
         NFxFlg=           0 DoJE=T BraDBF=F KetDBF=F FulRan=T
         wScrn=  0.000000 ICntrl=     500 IOpCl=  0 I1Cent=           0 NGrid=           0
         NMat0=    1 NMatS0=      1 NMatT0=    0 NMatD0=    1 NMtDS0=    0 NMtDT0=    0
 Petite list used in FoFCou.
 Defaulting to unpruned grid for atomic number  78.
 Defaulting to unpruned grid for atomic number  78.
 Defaulting to unpruned grid for atomic number  78.
 Defaulting to unpruned grid for atomic number  78.
 Inv3:  Mode=1 IEnd=     8286732.
 Iteration    1 A*A^-1 deviation from unit magnitude is 7.55D-15 for      3.
 Iteration    1 A*A^-1 deviation from orthogonality  is 4.05D-15 for   1618   1172.
 Iteration    1 A^-1*A deviation from unit magnitude is 6.00D-15 for   1296.
 Iteration    1 A^-1*A deviation from orthogonality  is 3.95D-15 for    994    710.
 E= -32513.6365163185    
 DIIS: error= 1.33D+00 at cycle   1 NSaved=   1.
 NSaved= 1 IEnMin= 1 EnMin= -32513.6365163185     IErMin= 1 ErrMin= 1.33D+00
 ErrMax= 1.33D+00  0.00D+00 EMaxC= 1.00D-01 BMatC= 3.27D+02 BMatP= 3.27D+02
 IDIUse=3 WtCom= 0.00D+00 WtEn= 1.00D+00
 Coeff-Com:  0.100D+01
 Coeff-En:   0.100D+01
 Coeff:      0.100D+01
 Gap=     0.056 Goal=   None    Shift=    0.000
 GapD=    0.056 DampG=0.500 DampE=0.125 DampFc=0.1250 IDamp=-1.
 Damping current iteration by 1.25D-01
 RMSDP=8.54D-03 MaxDP=9.80D-01              OVMax= 9.51D-01

 Cycle   2  Pass 1  IDiag  1:
 Density matrix breaks symmetry, PCut= 1.00D-04
 Density has only Abelian symmetry.
 RMSU=  1.06D-03    CP:  1.01D+00
 E= -32514.9890217498     Delta-E=       -1.352505431329 Rises=F Damp=T
 DIIS: error= 1.15D+00 at cycle   2 NSaved=   2.
 NSaved= 2 IEnMin= 2 EnMin= -32514.9890217498     IErMin= 2 ErrMin= 1.15D+00
 ErrMax= 1.15D+00  0.00D+00 EMaxC= 1.00D-01 BMatC= 2.33D+02 BMatP= 3.27D+02
 IDIUse=3 WtCom= 0.00D+00 WtEn= 1.00D+00
 Coeff-Com: -0.491D+01 0.591D+01
 Coeff-En:   0.000D+00 0.100D+01
 Coeff:      0.000D+00 0.100D+01
 Gap=     0.000 Goal=   None    Shift=    0.000
 RMSDP=4.88D-03 MaxDP=4.02D-01 DE=-1.35D+00 OVMax= 2.90D-01

 Cycle   3  Pass 1  IDiag  1:
 Density matrix breaks symmetry, PCut= 1.00D-04
 Density has only Abelian symmetry.
 RMSU=  3.22D-03    CP:  1.04D+00  3.00D+00
 E= -32512.2141487934     Delta-E=        2.774872956448 Rises=F Damp=F
 DIIS: error= 2.28D-01 at cycle   3 NSaved=   3.
 NSaved= 3 IEnMin= 2 EnMin= -32514.9890217498     IErMin= 3 ErrMin= 2.28D-01
 ErrMax= 2.28D-01  0.00D+00 EMaxC= 1.00D-01 BMatC= 3.04D+01 BMatP= 2.33D+02
 IDIUse=3 WtCom= 0.00D+00 WtEn= 1.00D+00
 EnCoef did   100 forward-backward iterations
 Coeff-Com:  0.136D+01-0.136D+01 0.995D+00
 Coeff-En:   0.521D+00 0.344D-01 0.445D+00
 Coeff:      0.521D+00 0.344D-01 0.445D+00
 Gap=    -0.123 Goal=   None    Shift=    0.000
 RMSDP=4.95D-03 MaxDP=4.41D-01 DE= 2.77D+00 OVMax= 8.75D-01

 Cycle   4  Pass 1  IDiag  1:
 Density matrix breaks symmetry, PCut= 1.00D-04
 Density has only Abelian symmetry.
 RMSU=  2.14D-03    CP:  1.01D+00  1.04D+00  1.85D-01
 E= -32518.1338832243     Delta-E=       -5.919734430863 Rises=F Damp=F
 DIIS: error= 6.23D-02 at cycle   4 NSaved=   4.
 NSaved= 4 IEnMin= 4 EnMin= -32518.1338832243     IErMin= 4 ErrMin= 6.23D-02
 ErrMax= 6.23D-02  0.00D+00 EMaxC= 1.00D-01 BMatC= 1.80D+00 BMatP= 3.04D+01
 IDIUse=3 WtCom= 3.77D-01 WtEn= 6.23D-01
 Coeff-Com: -0.704D+00 0.869D+00-0.748D-01 0.910D+00
 Coeff-En:   0.000D+00 0.000D+00 0.124D+00 0.876D+00
 Coeff:     -0.265D+00 0.327D+00 0.494D-01 0.889D+00
 Gap=     0.026 Goal=   None    Shift=    0.000
 RMSDP=4.54D-03 MaxDP=5.76D-01 DE=-5.92D+00 OVMax= 8.17D-01

 Cycle   5  Pass 1  IDiag  1:
 Density matrix breaks symmetry, PCut= 1.00D-04
 Density has only Abelian symmetry.
 RMSU=  2.10D-03    CP:  1.01D+00  3.00D+00  6.53D-01 -2.99D-01
 E= -32515.9665326180     Delta-E=        2.167350606251 Rises=F Damp=F
 DIIS: error= 1.00D-01 at cycle   5 NSaved=   5.
 NSaved= 5 IEnMin= 4 EnMin= -32518.1338832243     IErMin= 4 ErrMin= 6.23D-02
 ErrMax= 1.00D-01  0.00D+00 EMaxC= 1.00D-01 BMatC= 3.03D+00 BMatP= 1.80D+00
 IDIUse=2 WtCom= 0.00D+00 WtEn= 1.00D+00
 Coeff-En:   0.000D+00 0.000D+00 0.000D+00 0.725D+00 0.275D+00
 Coeff:      0.000D+00 0.000D+00 0.000D+00 0.725D+00 0.275D+00
 Gap=     0.020 Goal=   None    Shift=    0.000
 RMSDP=3.27D-03 MaxDP=3.55D-01 DE= 2.17D+00 OVMax= 2.69D-01

 Cycle   6  Pass 1  IDiag  1:
 Density matrix breaks symmetry, PCut= 1.00D-04
 Density has only Abelian symmetry.
 RMSU=  1.49D-03    CP:  1.01D+00  1.94D+00  2.57D-01  4.98D-01  3.97D-01
 E= -32518.5159367771     Delta-E=       -2.549404159072 Rises=F Damp=F
 DIIS: error= 3.79D-02 at cycle   6 NSaved=   6.
 NSaved= 6 IEnMin= 6 EnMin= -32518.5159367771     IErMin= 6 ErrMin= 3.79D-02
 ErrMax= 3.79D-02  0.00D+00 EMaxC= 1.00D-01 BMatC= 3.76D-01 BMatP= 1.80D+00
 IDIUse=3 WtCom= 6.21D-01 WtEn= 3.79D-01
 Coeff-Com: -0.295D-01 0.438D-01-0.413D-01 0.376D+00 0.685D-01 0.582D+00
 Coeff-En:   0.000D+00 0.000D+00 0.000D+00 0.360D+00 0.000D+00 0.640D+00
 Coeff:     -0.183D-01 0.272D-01-0.256D-01 0.370D+00 0.425D-01 0.604D+00
 Gap=     0.080 Goal=   None    Shift=    0.000
 RMSDP=1.28D-03 MaxDP=1.33D-01 DE=-2.55D+00 OVMax= 2.87D-01

 Cycle   7  Pass 1  IDiag  1:
 Density matrix breaks symmetry, PCut= 1.00D-04
 Density has only Abelian symmetry.
 RMSU=  7.12D-04    CP:  1.01D+00  1.41D+00  2.16D-01  6.71D-01  2.28D-01
                    CP:  5.09D-01
 E= -32518.7593413807     Delta-E=       -0.243404603643 Rises=F Damp=F
 DIIS: error= 1.37D-02 at cycle   7 NSaved=   7.
 NSaved= 7 IEnMin= 7 EnMin= -32518.7593413807     IErMin= 7 ErrMin= 1.37D-02
 ErrMax= 1.37D-02  0.00D+00 EMaxC= 1.00D-01 BMatC= 7.79D-02 BMatP= 3.76D-01
 IDIUse=3 WtCom= 8.63D-01 WtEn= 1.37D-01
 Coeff-Com: -0.331D-01 0.410D-01-0.575D-02 0.125D+00-0.226D-01 0.393D+00
 Coeff-Com:  0.503D+00
 Coeff-En:   0.000D+00 0.000D+00 0.000D+00 0.000D+00 0.000D+00 0.209D+00
 Coeff-En:   0.791D+00
 Coeff:     -0.286D-01 0.354D-01-0.496D-02 0.107D+00-0.195D-01 0.368D+00
 Coeff:      0.542D+00
 Gap=     0.058 Goal=   None    Shift=    0.000
 RMSDP=4.35D-04 MaxDP=2.85D-02 DE=-2.43D-01 OVMax= 9.93D-02

 Cycle   8  Pass 1  IDiag  1:
 Density matrix breaks symmetry, PCut= 1.00D-04
 Density has only Abelian symmetry.
 RMSU=  1.30D-04    CP:  1.01D+00  1.54D+00  2.26D-01  6.67D-01  2.42D-01
                    CP:  6.58D-01  5.49D-01
 E= -32518.8105023303     Delta-E=       -0.051160949595 Rises=F Damp=F
 DIIS: error= 4.01D-03 at cycle   8 NSaved=   8.
 NSaved= 8 IEnMin= 8 EnMin= -32518.8105023303     IErMin= 8 ErrMin= 4.01D-03
 ErrMax= 4.01D-03  0.00D+00 EMaxC= 1.00D-01 BMatC= 4.49D-03 BMatP= 7.79D-02
 IDIUse=3 WtCom= 9.60D-01 WtEn= 4.01D-02
 Coeff-Com: -0.603D-02 0.735D-02-0.246D-02 0.297D-01-0.396D-02 0.101D+00
 Coeff-Com:  0.244D+00 0.630D+00
 Coeff-En:   0.000D+00 0.000D+00 0.000D+00 0.000D+00 0.000D+00 0.000D+00
 Coeff-En:   0.000D+00 0.100D+01
 Coeff:     -0.579D-02 0.706D-02-0.236D-02 0.285D-01-0.380D-02 0.965D-01
 Coeff:      0.235D+00 0.645D+00
 Gap=     0.061 Goal=   None    Shift=    0.000
 RMSDP=4.90D-05 MaxDP=2.76D-03 DE=-5.12D-02 OVMax= 9.62D-03

 Cycle   9  Pass 1  IDiag  1:
 Density matrix breaks symmetry, PCut= 1.00D-04
 Density has only Abelian symmetry.
 RMSU=  3.92D-05    CP:  1.01D+00  1.52D+00  2.23D-01  6.66D-01  2.41D-01
                    CP:  6.51D-01  5.30D-01  8.90D-01
 E= -32518.8115877908     Delta-E=       -0.001085460499 Rises=F Damp=F
 DIIS: error= 4.27D-04 at cycle   9 NSaved=   9.
 NSaved= 9 IEnMin= 9 EnMin= -32518.8115877908     IErMin= 9 ErrMin= 4.27D-04
 ErrMax= 4.27D-04  0.00D+00 EMaxC= 1.00D-01 BMatC= 1.38D-04 BMatP= 4.49D-03
 IDIUse=3 WtCom= 9.96D-01 WtEn= 4.27D-03
 Coeff-Com: -0.284D-02 0.322D-02-0.320D-03 0.283D-02-0.625D-03 0.162D-01
 Coeff-Com:  0.833D-01 0.209D+00 0.690D+00
 Coeff-En:   0.000D+00 0.000D+00 0.000D+00 0.000D+00 0.000D+00 0.000D+00
 Coeff-En:   0.000D+00 0.000D+00 0.100D+01
 Coeff:     -0.283D-02 0.320D-02-0.318D-03 0.282D-02-0.622D-03 0.161D-01
 Coeff:      0.829D-01 0.208D+00 0.691D+00
 Gap=     0.062 Goal=   None    Shift=    0.000
 RMSDP=3.31D-05 MaxDP=3.03D-03 DE=-1.09D-03 OVMax= 6.87D-03

 Cycle  10  Pass 1  IDiag  1:
 Density matrix breaks symmetry, PCut= 1.00D-04
 Density has only Abelian symmetry.
 RMSU=  1.23D-05    CP:  1.01D+00  1.52D+00  2.23D-01  6.67D-01  2.40D-01
                    CP:  6.45D-01  5.67D-01  8.25D-01  7.57D-01
 E= -32518.8117535847     Delta-E=       -0.000165793906 Rises=F Damp=F
 DIIS: error= 1.90D-04 at cycle  10 NSaved=  10.
 NSaved=10 IEnMin=10 EnMin= -32518.8117535847     IErMin=10 ErrMin= 1.90D-04
 ErrMax= 1.90D-04  0.00D+00 EMaxC= 1.00D-01 BMatC= 1.48D-05 BMatP= 1.38D-04
 IDIUse=3 WtCom= 9.98D-01 WtEn= 1.90D-03
 Coeff-Com: -0.258D-03 0.278D-03-0.105D-03 0.605D-03-0.506D-04 0.214D-02
 Coeff-Com:  0.268D-01 0.743D-01 0.318D+00 0.578D+00
 Coeff-En:   0.000D+00 0.000D+00 0.000D+00 0.000D+00 0.000D+00 0.000D+00
 Coeff-En:   0.000D+00 0.000D+00 0.000D+00 0.100D+01
 Coeff:     -0.257D-03 0.278D-03-0.105D-03 0.604D-03-0.505D-04 0.213D-02
 Coeff:      0.267D-01 0.742D-01 0.318D+00 0.579D+00
 Gap=     0.062 Goal=   None    Shift=    0.000
 RMSDP=6.71D-06 MaxDP=5.79D-04 DE=-1.66D-04 OVMax= 7.59D-04

 Cycle  11  Pass 1  IDiag  1:
 Density matrix breaks symmetry, PCut= 1.00D-04
 Density has only Abelian symmetry.
 RMSU=  2.61D-06    CP:  1.01D+00  1.52D+00  2.23D-01  6.66D-01  2.41D-01
                    CP:  6.46D-01  5.65D-01  8.24D-01  8.14D-01  6.56D-01
 E= -32518.8117601599     Delta-E=       -0.000006575203 Rises=F Damp=F
 DIIS: error= 7.54D-05 at cycle  11 NSaved=  11.
 NSaved=11 IEnMin=11 EnMin= -32518.8117601599     IErMin=11 ErrMin= 7.54D-05
 ErrMax= 7.54D-05  0.00D+00 EMaxC= 1.00D-01 BMatC= 1.96D-06 BMatP= 1.48D-05
 IDIUse=1 WtCom= 1.00D+00 WtEn= 0.00D+00
 Coeff-Com:  0.465D-03-0.531D-03-0.416D-04 0.144D-03 0.143D-03-0.163D-02
 Coeff-Com:  0.321D-02 0.161D-01 0.875D-01 0.299D+00 0.596D+00
 Coeff:      0.465D-03-0.531D-03-0.416D-04 0.144D-03 0.143D-03-0.163D-02
 Coeff:      0.321D-02 0.161D-01 0.875D-01 0.299D+00 0.596D+00
 Gap=     0.062 Goal=   None    Shift=    0.000
 RMSDP=2.72D-06 MaxDP=1.97D-04 DE=-6.58D-06 OVMax= 5.12D-04

 Cycle  12  Pass 1  IDiag  1:
 E= -32518.8117615002     Delta-E=       -0.000001340246 Rises=F Damp=F
 DIIS: error= 1.52D-05 at cycle  12 NSaved=  12.
 NSaved=12 IEnMin=12 EnMin= -32518.8117615002     IErMin=12 ErrMin= 1.52D-05
 ErrMax= 1.52D-05  0.00D+00 EMaxC= 1.00D-01 BMatC= 4.92D-08 BMatP= 1.96D-06
 IDIUse=1 WtCom= 1.00D+00 WtEn= 0.00D+00
 Coeff-Com:  0.119D-03-0.136D-03-0.451D-05 0.321D-04 0.162D-04-0.390D-03
 Coeff-Com:  0.116D-02 0.557D-02 0.281D-01 0.109D+00 0.194D+00 0.663D+00
 Coeff:      0.119D-03-0.136D-03-0.451D-05 0.321D-04 0.162D-04-0.390D-03
 Coeff:      0.116D-02 0.557D-02 0.281D-01 0.109D+00 0.194D+00 0.663D+00
 Gap=     0.062 Goal=   None    Shift=    0.000
 RMSDP=4.99D-07 MaxDP=2.92D-05 DE=-1.34D-06 OVMax= 8.19D-05

 Cycle  13  Pass 1  IDiag  1:
 RMSU=  4.21D-07    CP:  1.00D+00
 E= -32518.8117615412     Delta-E=       -0.000000041051 Rises=F Damp=F
 DIIS: error= 1.59D-06 at cycle  13 NSaved=  13.
 NSaved=13 IEnMin=13 EnMin= -32518.8117615412     IErMin=13 ErrMin= 1.59D-06
 ErrMax= 1.59D-06  0.00D+00 EMaxC= 1.00D-01 BMatC= 1.41D-09 BMatP= 4.92D-08
 IDIUse=1 WtCom= 1.00D+00 WtEn= 0.00D+00
 Coeff-Com:  0.167D-05-0.189D-05-0.489D-06 0.106D-05 0.837D-06-0.116D-04
 Coeff-Com:  0.551D-04 0.317D-03 0.181D-02 0.787D-02 0.185D-01 0.217D+00
 Coeff-Com:  0.754D+00
 Coeff:      0.167D-05-0.189D-05-0.489D-06 0.106D-05 0.837D-06-0.116D-04
 Coeff:      0.551D-04 0.317D-03 0.181D-02 0.787D-02 0.185D-01 0.217D+00
 Coeff:      0.754D+00
 Gap=     0.062 Goal=   None    Shift=    0.000
 RMSDP=1.30D-07 MaxDP=7.11D-06 DE=-4.11D-08 OVMax= 2.35D-05

 Cycle  14  Pass 1  IDiag  1:
 RMSU=  3.39D-08    CP:  1.00D+00  8.33D-01
 E= -32518.8117615428     Delta-E=       -0.000000001543 Rises=F Damp=F
 DIIS: error= 3.17D-07 at cycle  14 NSaved=  14.
 NSaved=14 IEnMin=14 EnMin= -32518.8117615428     IErMin=14 ErrMin= 3.17D-07
 ErrMax= 3.17D-07  0.00D+00 EMaxC= 1.00D-01 BMatC= 2.37D-11 BMatP= 1.41D-09
 IDIUse=1 WtCom= 1.00D+00 WtEn= 0.00D+00
 Coeff-Com: -0.104D-05 0.120D-05-0.229D-07-0.340D-07 0.280D-08 0.125D-05
 Coeff-Com:  0.519D-05 0.283D-04 0.137D-03 0.804D-03 0.119D-02 0.532D-01
 Coeff-Com:  0.146D+00 0.799D+00
 Coeff:     -0.104D-05 0.120D-05-0.229D-07-0.340D-07 0.280D-08 0.125D-05
 Coeff:      0.519D-05 0.283D-04 0.137D-03 0.804D-03 0.119D-02 0.532D-01
 Coeff:      0.146D+00 0.799D+00
 Gap=     0.062 Goal=   None    Shift=    0.000
 RMSDP=7.74D-09 MaxDP=5.75D-07 DE=-1.54D-09 OVMax= 2.04D-06

 Error on total polarization charges =  0.04226
 SCF Done:  E(RPBE-PBE) =  -32518.8117615     A.U. after   14 cycles
            NFock= 14  Conv=0.77D-08     -V/T= 2.0113
 KE= 3.215565764752D+04 PE=-8.951708108362D+04 EE= 1.877966033124D+04
 Leave Link  502 at Fri Oct 29 23:24:18 2021, MaxMem=  2013265920 cpu:       875.8
 (Enter /scr/programas/g09/l801.exe)
 Range of M.O.s used for correlation:     1   546
 NBasis=   546 NAE=   145 NBE=   145 NFC=     0 NFV=     0
 NROrb=    546 NOA=   145 NOB=   145 NVA=   401 NVB=   401

 **** Warning!!: The largest alpha MO coefficient is  0.32145163D+02


 **** Warning!!: The smallest alpha delta epsilon is  0.61645584D-01

 Leave Link  801 at Fri Oct 29 23:24:18 2021, MaxMem=  2013265920 cpu:         0.1
 (Enter /scr/programas/g09/l1002.exe)
 Minotr:  Closed shell wavefunction.
 NEqPCM:  Using equilibrium solvation (IEInf=0, Eps=  78.3553, EpsInf=   1.7778)
          Direct CPHF calculation.
          Differentiating once with respect to magnetic field using GIAOs.
          Electric field/nuclear overlap derivatives assumed to be zero.
          Using symmetry in CPHF.
          Requested convergence is 1.0D-08 RMS, and 1.0D-07 maximum.
          Secondary convergence is 1.0D-12 RMS, and 1.0D-12 maximum.
          NewPWx=T KeepS1=F KeepF1=F KeepIn=T MapXYZ=F SortEE=F KeepMc=T.
          MDV=    2013265314 using IRadAn=       2.
 Defaulting to unpruned grid for atomic number  78.
 Generate precomputed XC quadrature information.
          Solving linear equations simultaneously, MaxMat=       0.
 FoFJK:  IHMeth= 1 ICntrl=    6127 DoSepK=F KAlg= 0 I1Cent=   0 FoldK=F
 IRaf=         1 NMat=   1 IRICut=       1 DoRegI=T DoRafI=F ISym2E= 0.
 Defaulting to unpruned grid for atomic number  78.
 Defaulting to unpruned grid for atomic number  78.
 Defaulting to unpruned grid for atomic number  78.
 Defaulting to unpruned grid for atomic number  78.
          There are     3 degrees of freedom in the 1st order CPHF.  IDoFFX=0 NUNeed=     3.
      3 vectors produced by pass  0 Test12= 1.94D-12 3.33D-08 XBig12= 2.14D+01 3.97D+00.
 AX will form     3 AO Fock derivatives at one time.
 InvSVY:  IOpt=1 It=  1 EMax= 0.00D+00
 Solved reduced A of dimension     3 with     3 vectors.
 Calculating GIAO nuclear magnetic shielding tensors.
 SCF GIAO Magnetic shielding tensor (ppm):
      1  Pt   Isotropic =  1973.7803   Anisotropy =     0.0019
   XX=  1973.7815   YX=     0.0000   ZX=     0.0000
   XY=     0.0000   YY=  1973.7778   ZY=     0.0000
   XZ=     0.0000   YZ=     0.0000   ZZ=  1973.7815
   Eigenvalues:  1973.7778  1973.7815  1973.7815
      2  Br   Isotropic =  1608.0476   Anisotropy =  1944.7712
   XX=   959.7892   YX=     0.0000   ZX=     0.0000
   XY=     0.0000   YY=   959.7918   ZY=     0.0000
   XZ=     0.0000   YZ=     0.0000   ZZ=  2904.5617
   Eigenvalues:   959.7892   959.7918  2904.5617
      3  Br   Isotropic =  1608.0460   Anisotropy =  1944.7734
   XX=   959.7875   YX=     0.0000   ZX=     0.0000
   XY=     0.0000   YY=  2904.5616   ZY=     0.0000
   XZ=     0.0000   YZ=     0.0000   ZZ=   959.7890
   Eigenvalues:   959.7875   959.7890  2904.5616
      4  Br   Isotropic =  1608.0481   Anisotropy =  1944.7706
   XX=  2904.5618   YX=     0.0000   ZX=     0.0000
   XY=     0.0000   YY=   959.7918   ZY=     0.0000
   XZ=     0.0000   YZ=     0.0000   ZZ=   959.7907
   Eigenvalues:   959.7907   959.7918  2904.5618
      5  Br   Isotropic =  1608.0476   Anisotropy =  1944.7712
   XX=   959.7892   YX=     0.0000   ZX=     0.0000
   XY=     0.0000   YY=   959.7918   ZY=     0.0000
   XZ=     0.0000   YZ=     0.0000   ZZ=  2904.5617
   Eigenvalues:   959.7892   959.7918  2904.5617
      6  Br   Isotropic =  1608.0460   Anisotropy =  1944.7734
   XX=   959.7875   YX=     0.0000   ZX=     0.0000
   XY=     0.0000   YY=  2904.5616   ZY=     0.0000
   XZ=     0.0000   YZ=     0.0000   ZZ=   959.7890
   Eigenvalues:   959.7875   959.7890  2904.5616
      7  Br   Isotropic =  1608.0481   Anisotropy =  1944.7706
   XX=  2904.5618   YX=     0.0000   ZX=     0.0000
   XY=     0.0000   YY=   959.7918   ZY=     0.0000
   XZ=     0.0000   YZ=     0.0000   ZZ=   959.7907
   Eigenvalues:   959.7907   959.7918  2904.5618
 End of Minotr F.D. properties file   721 does not exist.
 End of Minotr F.D. properties file   722 does not exist.
 End of Minotr F.D. properties file   788 does not exist.
 Leave Link 1002 at Fri Oct 29 23:31:49 2021, MaxMem=  2013265920 cpu:      1794.3
 (Enter /scr/programas/g09/l601.exe)
 Copying SCF densities to generalized density rwf, IOpCl= 0 IROHF=0.

 **********************************************************************

            Population analysis using the SCF density.

 **********************************************************************

 Orbital symmetries:
       Occupied  (A1G) (T2G) (T2G) (T1U) (T1U) (T1U) (T2G) (A1G)
                 (T1U) (T1U) (T1U) (A1G) (T1U) (T1U) (T1U) (EG)
                 (EG) (T2G) (T2G) (T2G) (T1U) (T2G) (T1U) (T2G)
                 (T1U) (T2G) (T2G) (T1U) (T2G) (T1U) (T2G) (T1U)
                 (?A) (?A) (?B) (?B) (?A) (?A) (?B) (?B) (?A) (?A)
                 (?B) (?B) (A1G) (T1U) (T1U) (T1U) (EG) (EG) (T2G)
                 (T2G) (T2G) (T2G) (T2G) (T1U) (T1U) (T1U) (T2G)
                 (T2G) (T2G) (T1U) (T1U) (T1U) (T2G) (?A) (?A)
                 (?A) (?B) (?B) (?B) (?A) (?A) (?A) (?B) (?B) (?B)
                 (T1U) (T1U) (T1U) (T2U) (T2U) (T2U) (A2U) (A1G)
                 (T1U) (T1U) (T1U) (T2G) (T2G) (T2G) (?A) (?A)
                 (?A) (?B) (?B) (?B) (?B) (?B) (?B) (?A) (?A) (?A)
                 (T1G) (T1G) (T2U) (T2U) (T2U) (T1U) (T2G) (T2G)
                 (T2G) (T1G) (T1U) (T1U) (T1U) (T1U) (T1U) (A1G)
                 (EG) (EG) (T1U) (T1U) (T1U) (EG) (EG) (T2G) (T2G)
                 (T2G) (A1G) (T1U) (T1U) (T1U) (T2U) (T2U) (T2U)
                 (T2G) (T2G) (T2G) (T1U) (T1U) (T1U) (T1G) (T1G)
                 (T1G)
       Virtual   (EG) (EG) (A1G) (T1U) (T1U) (T1U) (EG) (EG) (T2G)
                 (T2G) (T2G) (T1U) (T1U) (T1U) (T2U) (T2U) (T2U)
                 (A1G) (T1G) (T1G) (T1G) (EG) (EG) (A1G) (T1U)
                 (T1U) (T1U) (T2G) (T2G) (T2G) (T1U) (T1U) (T1U)
                 (EG) (EG) (T2G) (T2G) (T2G) (T1U) (T1U) (T1U)
                 (T2U) (T2U) (T2U) (A1G) (T1G) (T1G) (T1G) (T1U)
                 (T1U) (T1U) (EG) (EG) (T1U) (T1U) (T1U) (T2G)
                 (T2G) (T2G) (A1G) (EG) (EG) (T1U) (T1U) (T1U)
                 (EG) (EG) (T2G) (T2G) (T2G) (A1G) (T2U) (T2U)
                 (T2U) (T1U) (T1U) (T1U) (A1G) (EG) (EG) (T1U)
                 (T1U) (T1U) (T2G) (T2G) (T2G) (T1U) (T1U) (T1U)
                 (T2U) (T2U) (T2U) (A2U) (EU) (EU) (A2G) (T1G)
                 (T1G) (T1G) (T2G) (T2G) (T2G) (T2U) (T2U) (T2U)
                 (T1G) (T1G) (T1G) (EG) (EG) (T1U) (T1U) (T1U)
                 (A2U) (T2U) (T2U) (T2U) (A1G) (T1U) (T1U) (T1U)
                 (T2G) (T2G) (T2G) (EG) (EG) (T1U) (T1U) (T1U)
                 (T2U) (T2U) (T2U) (T1G) (T1G) (T1G) (EU) (EU)
                 (T2G) (T2G) (T2G) (T1G) (T1G) (T1G) (EG) (EG)
                 (T2U) (T2U) (T2U) (A2G) (T2G) (T2G) (T2G) (A2U)
                 (T1U) (T1U) (T1U) (EG) (EG) (A1G) (T1U) (T1U)
                 (T1U) (T2U) (T2U) (T2U) (T2G) (T2G) (T2G) (A1G)
                 (EG) (EG) (T1U) (T1U) (T1U) (T1U) (T1U) (T1U)
                 (T2G) (T2G) (T2G) (EG) (EG) (A1G) (T2G) (T2G)
                 (T2G) (EG) (EG) (A1G) (T1G) (T1G) (T1G) (T1U)
                 (T1U) (T1U) (A1G) (EG) (EG) (A2U) (T2U) (T2U)
                 (T2U) (T1U) (T1U) (T1U) (T2U) (T2U) (T2U) (T2G)
                 (T2G) (T2G) (T1U) (T1U) (T1U) (T1G) (T1G) (T1G)
                 (A1G) (EG) (EG) (T1U) (T1U) (T1U) (T2G) (T2G)
                 (T2G) (EU) (EU) (T2U) (T2U) (T2U) (T1G) (T1G)
                 (T1G) (T2G) (T2G) (T2G) (A2U) (A2G) (T2U) (T2U)
                 (T2U) (T1U) (T1U) (T1U) (T1G) (T1G) (T1G) (EG)
                 (EG) (T1U) (T1U) (T1U) (T2U) (T2U) (T2U) (T2G)
                 (T2G) (T2G) (T1U) (T1U) (T1U) (EG) (EG) (A1G)
                 (T1U) (T1U) (T1U) (EU) (EU) (A2G) (A2U) (T1G)
                 (T1G) (T1G) (T2U) (T2U) (T2U) (T2G) (T2G) (T2G)
                 (T2U) (T2U) (T2U) (EG) (EG) (T1U) (T1U) (T1U)
                 (T2G) (T2G) (T2G) (A1G) (T1U) (T1U) (T1U) (EG)
                 (EG) (T2G) (T2G) (T2G) (T1G) (T1G) (T1G) (EG)
                 (EG) (A1G) (A1G) (T2G) (T2G) (T2G) (EG) (EG) (A1G)
                 (T1U) (T1U) (T1U) (EG) (EG) (T2U) (T2U) (T2U)
                 (T1U) (T1U) (T1U) (T2G) (T2G) (T2G) (A1G) (T1G)
                 (T1G) (T1G) (T1U) (T1U) (T1U) (EG) (EG) (T1U)
                 (T1U) (T1U) (A1G) (T2G) (T2G) (T2G) (EG) (EG)
                 (A1G) (T1U) (T1U) (T1U) (EG) (EG) (A1G) (T1U)
                 (T1U) (T1U) (T2U) (T2U) (T2U) (T1U) (T1U) (T1U)
                 (T2G) (T2G) (T2G) (T1G) (T1G) (T1G) (A1G) (T1U)
                 (T1U) (T1U) (EG) (EG) (A1G) (A1G) (T1U) (T1U)
                 (T1U) (EG) (EG) (T1U) (T1U) (T1U) (A1G) (A1G)
                 (T1U) (T1U) (T1U) (EG) (EG) (A1G) (A1G) (A1G)
                 (T1U) (T1U) (T1U) (EG) (EG) (A1G) (A1G)
 Unable to determine electronic state:  an orbital has unidentified symmetry.
 Alpha  occ. eigenvalues -- **********-478.58468-478.58468-478.58468-478.58468
 Alpha  occ. eigenvalues -- -478.58468-478.58467-427.60213-414.93113-414.93113
 Alpha  occ. eigenvalues -- -414.93113 -99.98234 -92.13888 -92.13888 -92.13888
 Alpha  occ. eigenvalues --  -79.09828 -79.09828 -79.09668 -79.09668 -79.09668
 Alpha  occ. eigenvalues --  -61.50305 -61.50305 -61.50305 -61.50305 -61.50305
 Alpha  occ. eigenvalues --  -61.50305 -55.68804 -55.68804 -55.68804 -55.68804
 Alpha  occ. eigenvalues --  -55.68804 -55.68804 -55.68483 -55.68483 -55.68483
 Alpha  occ. eigenvalues --  -55.68483 -55.68483 -55.68483 -55.68483 -55.68483
 Alpha  occ. eigenvalues --  -55.68483 -55.68483 -55.68483 -55.68483 -20.89668
 Alpha  occ. eigenvalues --  -17.46104 -17.46104 -17.46104 -11.64586 -11.64586
 Alpha  occ. eigenvalues --  -11.64015 -11.64015 -11.64015  -8.33159  -8.33159
 Alpha  occ. eigenvalues --   -8.33159  -8.33159  -8.33159  -8.33159  -6.24085
 Alpha  occ. eigenvalues --   -6.24085  -6.24085  -6.24085  -6.24085  -6.24085
 Alpha  occ. eigenvalues --   -6.23150  -6.23150  -6.23150  -6.23150  -6.23150
 Alpha  occ. eigenvalues --   -6.23150  -6.23150  -6.23150  -6.23150  -6.23150
 Alpha  occ. eigenvalues --   -6.23150  -6.23150  -3.19378  -3.19378  -3.19378
 Alpha  occ. eigenvalues --   -3.19063  -3.19063  -3.19063  -3.18668  -2.92365
 Alpha  occ. eigenvalues --   -2.45006  -2.45006  -2.45006  -2.45005  -2.45005
 Alpha  occ. eigenvalues --   -2.45004  -2.44767  -2.44766  -2.44766  -2.44766
 Alpha  occ. eigenvalues --   -2.44766  -2.44766  -2.44766  -2.44766  -2.44766
 Alpha  occ. eigenvalues --   -2.44765  -2.44765  -2.44765  -2.44078  -2.44078
 Alpha  occ. eigenvalues --   -2.44078  -2.44078  -2.44078  -2.44078  -2.44078
 Alpha  occ. eigenvalues --   -2.44078  -2.44078  -2.44078  -2.44078  -2.44078
 Alpha  occ. eigenvalues --   -1.86283  -1.86283  -1.86283  -0.67754  -0.65795
 Alpha  occ. eigenvalues --   -0.65795  -0.65670  -0.65670  -0.65670  -0.37266
 Alpha  occ. eigenvalues --   -0.37266  -0.34467  -0.34467  -0.34467  -0.32886
 Alpha  occ. eigenvalues --   -0.28348  -0.28348  -0.28348  -0.23002  -0.23002
 Alpha  occ. eigenvalues --   -0.23002  -0.22739  -0.22739  -0.22739  -0.22721
 Alpha  occ. eigenvalues --   -0.22721  -0.22721  -0.20677  -0.20677  -0.20677
 Alpha virt. eigenvalues --   -0.14512  -0.14512  -0.01085   0.00564   0.00564
 Alpha virt. eigenvalues --    0.00564   0.02590   0.02590   0.02770   0.02770
 Alpha virt. eigenvalues --    0.02770   0.04663   0.04663   0.04663   0.05301
 Alpha virt. eigenvalues --    0.05301   0.05301   0.05707   0.08088   0.08088
 Alpha virt. eigenvalues --    0.08088   0.08571   0.08571   0.09259   0.09397
 Alpha virt. eigenvalues --    0.09397   0.09397   0.11103   0.11103   0.11103
 Alpha virt. eigenvalues --    0.15261   0.15261   0.15261   0.17068   0.17068
 Alpha virt. eigenvalues --    0.17597   0.17597   0.17597   0.18116   0.18116
 Alpha virt. eigenvalues --    0.18116   0.20331   0.20331   0.20331   0.22472
 Alpha virt. eigenvalues --    0.22658   0.22658   0.22658   0.25506   0.25506
 Alpha virt. eigenvalues --    0.25506   0.25850   0.25850   0.27199   0.27199
 Alpha virt. eigenvalues --    0.27199   0.27674   0.27674   0.27674   0.34673
 Alpha virt. eigenvalues --    0.34851   0.34851   0.46364   0.46364   0.46364
 Alpha virt. eigenvalues --    0.57968   0.57968   0.68608   0.68608   0.68608
 Alpha virt. eigenvalues --    0.74475   0.77010   0.77010   0.77010   0.78420
 Alpha virt. eigenvalues --    0.78420   0.78420   0.79058   0.81750   0.81750
 Alpha virt. eigenvalues --    0.82075   0.82075   0.82075   0.87630   0.87630
 Alpha virt. eigenvalues --    0.87630   0.88872   0.88872   0.88872   0.89395
 Alpha virt. eigenvalues --    0.89395   0.89395   0.90174   0.91629   0.91629
 Alpha virt. eigenvalues --    0.91701   0.92784   0.92784   0.92784   0.94227
 Alpha virt. eigenvalues --    0.94227   0.94227   0.94366   0.94366   0.94366
 Alpha virt. eigenvalues --    0.96141   0.96141   0.96141   0.96707   0.96707
 Alpha virt. eigenvalues --    0.99963   0.99963   0.99963   1.00909   1.04202
 Alpha virt. eigenvalues --    1.04202   1.04202   1.10361   1.11730   1.11730
 Alpha virt. eigenvalues --    1.11730   1.12733   1.12733   1.12733   1.17985
 Alpha virt. eigenvalues --    1.17985   1.18398   1.18398   1.18398   1.22659
 Alpha virt. eigenvalues --    1.22659   1.22659   1.22923   1.22923   1.22923
 Alpha virt. eigenvalues --    1.22981   1.22981   1.23560   1.23560   1.23560
 Alpha virt. eigenvalues --    1.24960   1.24960   1.24960   1.26890   1.26890
 Alpha virt. eigenvalues --    1.27235   1.27235   1.27235   1.27939   1.30302
 Alpha virt. eigenvalues --    1.30302   1.30302   1.33150   1.36902   1.36902
 Alpha virt. eigenvalues --    1.36902   1.41057   1.41057   1.41367   1.42282
 Alpha virt. eigenvalues --    1.42282   1.42282   1.49288   1.49288   1.49288
 Alpha virt. eigenvalues --    1.55632   1.55632   1.55632   1.59263   1.69202
 Alpha virt. eigenvalues --    1.69202   1.72750   1.72750   1.72750   1.90153
 Alpha virt. eigenvalues --    1.90153   1.90153   2.69213   2.69213   2.69213
 Alpha virt. eigenvalues --    2.91889   2.91889   3.01263   3.11532   3.11532
 Alpha virt. eigenvalues --    3.11532   3.11545   3.11546   3.13850   3.14186
 Alpha virt. eigenvalues --    3.14186   3.14186   3.23749   3.23749   3.23749
 Alpha virt. eigenvalues --    3.26154   3.32537   3.32537   3.65704   3.71192
 Alpha virt. eigenvalues --    3.71192   3.71192   3.74279   3.74279   3.74279
 Alpha virt. eigenvalues --    4.01361   4.01361   4.01361   4.05339   4.05339
 Alpha virt. eigenvalues --    4.05339   4.06270   4.06270   4.06270   4.08594
 Alpha virt. eigenvalues --    4.08594   4.08594   4.13593   4.22055   4.22055
 Alpha virt. eigenvalues --    4.25385   4.25385   4.25385   4.30390   4.30390
 Alpha virt. eigenvalues --    4.30390   4.30412   4.30412   4.30655   4.30655
 Alpha virt. eigenvalues --    4.30655   4.31216   4.31216   4.31216   4.31905
 Alpha virt. eigenvalues --    4.31905   4.31905   4.32071   4.33263   4.33743
 Alpha virt. eigenvalues --    4.33743   4.33743   4.34771   4.34771   4.34771
 Alpha virt. eigenvalues --    4.36811   4.36811   4.36811   4.39448   4.39448
 Alpha virt. eigenvalues --    4.39704   4.39704   4.39704   4.40790   4.40790
 Alpha virt. eigenvalues --    4.40790   4.43382   4.43382   4.43382   4.44945
 Alpha virt. eigenvalues --    4.44945   4.44945   4.49550   4.49550   4.52800
 Alpha virt. eigenvalues --    5.60816   5.60816   5.60816   5.87924   5.87924
 Alpha virt. eigenvalues --    5.87991   5.88102   5.88980   5.88980   5.88980
 Alpha virt. eigenvalues --    5.89002   5.89002   5.89002   5.89460   5.89460
 Alpha virt. eigenvalues --    5.89460   5.90587   5.90587   5.90587   6.04348
 Alpha virt. eigenvalues --    6.04348   6.06100   6.06100   6.06100   6.10162
 Alpha virt. eigenvalues --    6.10162   6.10162   6.21559   6.31470   6.31470
 Alpha virt. eigenvalues --    6.31470   6.37994   6.37994   8.42408   8.42408
 Alpha virt. eigenvalues --    8.42408   8.44828   8.44828   8.44828   8.48012
 Alpha virt. eigenvalues --    8.48012   8.48518   8.80269   9.72262   9.72262
 Alpha virt. eigenvalues --    9.72262   9.95998   9.95998  13.98481  14.09276
 Alpha virt. eigenvalues --   14.09276  14.09276  14.12308  14.12308  20.27231
 Alpha virt. eigenvalues --   20.27231  20.27231  20.29501  20.29501  20.29501
 Alpha virt. eigenvalues --   20.29758  20.29758  20.29758  20.31980  20.32251
 Alpha virt. eigenvalues --   20.32251  20.32251  20.35720  20.35720  20.35720
 Alpha virt. eigenvalues --   20.42595  20.42595  20.88739  20.88739  20.88739
 Alpha virt. eigenvalues --   25.87340  42.79861  42.79861  42.79861  42.94711
 Alpha virt. eigenvalues --   42.94711  65.04888  65.14145  65.14145  65.14145
 Alpha virt. eigenvalues --   65.16638  65.16638  81.92224  86.01948  86.01948
 Alpha virt. eigenvalues --   86.01948 112.72263 112.72263 112.72263 112.74030
 Alpha virt. eigenvalues --  112.74030 112.74030 112.74128 112.74128 112.74128
 Alpha virt. eigenvalues --  112.75778 112.75778 112.75778 112.75867 112.78674
 Alpha virt. eigenvalues --  112.78674 112.78674 112.82981 112.82981 257.04530
 Alpha virt. eigenvalues --  282.40222 282.48104 282.48104 282.48105 282.50228
 Alpha virt. eigenvalues --  282.50228 428.63770 428.63770 428.63770 772.73841
 Alpha virt. eigenvalues -- 1043.575841043.644221043.644221043.644221043.66261
 Alpha virt. eigenvalues -- 1043.662612068.353425495.167375634.423685634.51448
 Alpha virt. eigenvalues -- 5634.514485634.514485634.538925634.53892**********
 Alpha virt. eigenvalues -- **********
          Condensed to atoms (all electrons):
               1          2          3          4          5          6
     1  Pt  77.578623   0.120394   0.120394   0.120394   0.120394   0.120394
     2  Br   0.120394  35.342248  -0.042048  -0.042048  -0.011283  -0.042048
     3  Br   0.120394  -0.042048  35.342248  -0.042048  -0.042048  -0.011283
     4  Br   0.120394  -0.042048  -0.042048  35.342248  -0.042048  -0.042048
     5  Br   0.120394  -0.011283  -0.042048  -0.042048  35.342248  -0.042048
     6  Br   0.120394  -0.042048  -0.011283  -0.042048  -0.042048  35.342248
     7  Br   0.120394  -0.042048  -0.042048  -0.011283  -0.042048  -0.042048
               7
     1  Pt   0.120394
     2  Br  -0.042048
     3  Br  -0.042048
     4  Br  -0.011283
     5  Br  -0.042048
     6  Br  -0.042048
     7  Br  35.342248
 Mulliken charges:
               1
     1  Pt  -0.300989
     2  Br  -0.283169
     3  Br  -0.283169
     4  Br  -0.283169
     5  Br  -0.283169
     6  Br  -0.283169
     7  Br  -0.283169
 Sum of Mulliken charges =  -2.00000
 Mulliken charges with hydrogens summed into heavy atoms:
               1
     1  Pt  -0.300989
     2  Br  -0.283169
     3  Br  -0.283169
     4  Br  -0.283169
     5  Br  -0.283169
     6  Br  -0.283169
     7  Br  -0.283169
 Electronic spatial extent (au):  <R**2>=           5062.2195
 Charge=             -2.0000 electrons
 Dipole moment (field-independent basis, Debye):
    X=              0.0000    Y=              0.0000    Z=              0.0000  Tot=              0.0000
 Quadrupole moment (field-independent basis, Debye-Ang):
   XX=           -172.8112   YY=           -172.8112   ZZ=           -172.8112
   XY=              0.0000   XZ=              0.0000   YZ=              0.0000
 Traceless Quadrupole moment (field-independent basis, Debye-Ang):
   XX=              0.0000   YY=              0.0000   ZZ=              0.0000
   XY=              0.0000   XZ=              0.0000   YZ=              0.0000
 Octapole moment (field-independent basis, Debye-Ang**2):
  XXX=              0.0000  YYY=              0.0000  ZZZ=              0.0000  XYY=              0.0000
  XXY=              0.0000  XXZ=              0.0000  XZZ=              0.0000  YZZ=              0.0000
  YYZ=              0.0000  XYZ=              0.0000
 Hexadecapole moment (field-independent basis, Debye-Ang**3):
 XXXX=          -1800.7696 YYYY=          -1800.7696 ZZZZ=          -1800.7696 XXXY=              0.0000
 XXXZ=              0.0000 YYYX=              0.0000 YYYZ=              0.0000 ZZZX=              0.0000
 ZZZY=              0.0000 XXYY=           -584.7734 XXZZ=           -584.7734 YYZZ=           -584.7734
 XXYZ=              0.0000 YYXZ=              0.0000 ZZXY=              0.0000
 N-N= 6.062951343327D+03 E-N=-8.951708072947D+04  KE= 3.215565764752D+04
 Symmetry AG   KE= 1.401837746137D+04
 Symmetry B1G  KE= 1.297099487341D+03
 Symmetry B2G  KE= 1.297099487341D+03
 Symmetry B3G  KE= 1.297099487341D+03
 Symmetry AU   KE= 2.251544462503D+02
 Symmetry B1U  KE= 4.673609092624D+03
 Symmetry B2U  KE= 4.673609092624D+03
 Symmetry B3U  KE= 4.673609092624D+03
 Calculating spin-rotation constants.
 Leave Link  601 at Fri Oct 29 23:31:53 2021, MaxMem=  2013265920 cpu:         8.8
 (Enter /scr/programas/g09/l9999.exe)
 1\1\GINC-NQTCM04\SP\RPBEPBE\Gen\Br6Pt1(2-)\DIEGO\29-Oct-2021\0\\#PBEPB
 E/gen scf=maxcycle=200 NMR=GIAO Scrf=(solvent=water)\\estrutura 11\\-2
 ,1\Pt,0,0.,0.,0.\Br,0,0.,0.,2.497266\Br,0,0.,2.497266,0.\Br,0,2.497266
 ,0.,0.\Br,0,0.,0.,-2.497266\Br,0,0.,-2.497266,0.\Br,0,-2.497266,0.,0.\
 \Version=EM64L-G09RevD.01\State=1-A1G\HF=-32518.8117615\RMSD=7.737e-09
 \Dipole=0.,0.,0.\Quadrupole=0.,0.,0.,0.,0.,0.\PG=OH [O(Pt1),3C4(Br1.Br
 1)]\\@


 KNOWLEDGE IS OF TWO KINDS:  WE KNOW A SUBJECT OURSELVES OR WE KNOW 
 WHERE WE CAN FIND INFORMATION UPON IT.

                                    -- SAMUEL JOHNSON
 Job cpu time:       0 days  0 hours 44 minutes 57.0 seconds.
 File lengths (MBytes):  RWF=    218 Int=      0 D2E=      0 Chk=     18 Scr=      1
 Normal termination of Gaussian 09 at Fri Oct 29 23:31:53 2021.
