 Entering Gaussian System, Link 0=g09
 Input=estrutura27freq_LANL2DZ_TZVP.com
 Output=estrutura27freq_LANL2DZ_TZVP.log
 Initial command:
 /scr/programas/g09/l1.exe "/scr/diego/Gau-6218.inp" -scrdir="/scr/diego/"
 Entering Link 1 = /scr/programas/g09/l1.exe PID=      6220.
  
 Copyright (c) 1988,1990,1992,1993,1995,1998,2003,2009,2013,
            Gaussian, Inc.  All Rights Reserved.
  
 This is part of the Gaussian(R) 09 program.  It is based on
 the Gaussian(R) 03 system (copyright 2003, Gaussian, Inc.),
 the Gaussian(R) 98 system (copyright 1998, Gaussian, Inc.),
 the Gaussian(R) 94 system (copyright 1995, Gaussian, Inc.),
 the Gaussian 92(TM) system (copyright 1992, Gaussian, Inc.),
 the Gaussian 90(TM) system (copyright 1990, Gaussian, Inc.),
 the Gaussian 88(TM) system (copyright 1988, Gaussian, Inc.),
 the Gaussian 86(TM) system (copyright 1986, Carnegie Mellon
 University), and the Gaussian 82(TM) system (copyright 1983,
 Carnegie Mellon University). Gaussian is a federally registered
 trademark of Gaussian, Inc.
  
 This software contains proprietary and confidential information,
 including trade secrets, belonging to Gaussian, Inc.
  
 This software is provided under written license and may be
 used, copied, transmitted, or stored only in accord with that
 written license.
  
 The following legend is applicable only to US Government
 contracts under FAR:
  
                    RESTRICTED RIGHTS LEGEND
  
 Use, reproduction and disclosure by the US Government is
 subject to restrictions as set forth in subparagraphs (a)
 and (c) of the Commercial Computer Software - Restricted
 Rights clause in FAR 52.227-19.
  
 Gaussian, Inc.
 340 Quinnipiac St., Bldg. 40, Wallingford CT 06492
  
  
 ---------------------------------------------------------------
 Warning -- This program may not be used in any manner that
 competes with the business of Gaussian, Inc. or will provide
 assistance to any competitor of Gaussian, Inc.  The licensee
 of this program is prohibited from giving any competitor of
 Gaussian, Inc. access to this program.  By using this program,
 the user acknowledges that Gaussian, Inc. is engaged in the
 business of creating and licensing software in the field of
 computational chemistry and represents and warrants to the
 licensee that it is not a competitor of Gaussian, Inc. and that
 it will not use this program in any manner prohibited above.
 ---------------------------------------------------------------
  

 Cite this work as:
 Gaussian 09, Revision D.01,
 M. J. Frisch, G. W. Trucks, H. B. Schlegel, G. E. Scuseria, 
 M. A. Robb, J. R. Cheeseman, G. Scalmani, V. Barone, B. Mennucci, 
 G. A. Petersson, H. Nakatsuji, M. Caricato, X. Li, H. P. Hratchian, 
 A. F. Izmaylov, J. Bloino, G. Zheng, J. L. Sonnenberg, M. Hada, 
 M. Ehara, K. Toyota, R. Fukuda, J. Hasegawa, M. Ishida, T. Nakajima, 
 Y. Honda, O. Kitao, H. Nakai, T. Vreven, J. A. Montgomery, Jr., 
 J. E. Peralta, F. Ogliaro, M. Bearpark, J. J. Heyd, E. Brothers, 
 K. N. Kudin, V. N. Staroverov, T. Keith, R. Kobayashi, J. Normand, 
 K. Raghavachari, A. Rendell, J. C. Burant, S. S. Iyengar, J. Tomasi, 
 M. Cossi, N. Rega, J. M. Millam, M. Klene, J. E. Knox, J. B. Cross, 
 V. Bakken, C. Adamo, J. Jaramillo, R. Gomperts, R. E. Stratmann, 
 O. Yazyev, A. J. Austin, R. Cammi, C. Pomelli, J. W. Ochterski, 
 R. L. Martin, K. Morokuma, V. G. Zakrzewski, G. A. Voth, 
 P. Salvador, J. J. Dannenberg, S. Dapprich, A. D. Daniels, 
 O. Farkas, J. B. Foresman, J. V. Ortiz, J. Cioslowski, 
 and D. J. Fox, Gaussian, Inc., Wallingford CT, 2013.
 
 ******************************************
 Gaussian 09:  EM64L-G09RevD.01 24-Apr-2013
                30-Oct-2021 
 ******************************************
 %mem=15Gb
 %nproc=4
 Will use up to    4 processors via shared memory.
 ----------------------------------------------------------
 #PBEPBE/gen scf=maxcycle=200 NMR=GIAO Scrf=(solvent=water)
 ----------------------------------------------------------
 1/38=1/1;
 2/12=2,17=6,18=5,40=1/2;
 3/5=7,11=2,16=1,25=1,30=1,70=2201,72=1,74=1009/1,2,8,3;
 4//1;
 5/5=2,7=200,38=5,53=1/2;
 8/6=1,10=90,11=11/1;
 10/13=100,45=16/2;
 6/7=2,8=2,9=2,10=2,28=1/1;
 99/9=1/99;
 Leave Link    1 at Sat Oct 30 01:53:32 2021, MaxMem=  2013265920 cpu:         0.2
 (Enter /scr/programas/g09/l101.exe)
 ------------
 estrutura 27
 ------------
 Symbolic Z-matrix:
 Charge = -2 Multiplicity = 1
 Pt                   -0.22643  -0.08691   0.01365 
 Cl                   -2.62124  -0.22188   0.15198 
 Cl                   -0.09147  -2.52034   0.05721 
 Br                    2.29557   0.05108  -0.13286 
 N                    -0.35428   1.99918  -0.01387 
 O                     0.34845   2.63076   0.75146 
 O                    -1.13255   2.51699  -0.79096 
 Cl                   -0.33568  -0.15063  -2.37206 
 Cl                   -0.124    -0.05922   2.39807 
 
 NAtoms=      9 NQM=        9 NQMF=       0 NMMI=      0 NMMIF=      0
                NMic=       0 NMicF=      0.
                    Isotopes and Nuclear Properties:
 (Nuclear quadrupole moments (NQMom) in fm**2, nuclear magnetic moments (NMagM)
  in nuclear magnetons)

  Atom         1           2           3           4           5           6           7           8           9
 IAtWgt=         195          35          35          79          14          16          16          35          35
 AtmWgt= 194.9648000  34.9688527  34.9688527  78.9183361  14.0030740  15.9949146  15.9949146  34.9688527  34.9688527
 NucSpn=           1           3           3           3           2           0           0           3           3
 AtZEff=   0.0000000   0.0000000   0.0000000   0.0000000   0.0000000   0.0000000   0.0000000   0.0000000   0.0000000
 NQMom=    0.0000000  -8.1650000  -8.1650000  31.3000000   2.0440000   0.0000000   0.0000000  -8.1650000  -8.1650000
 NMagM=    0.6095000   0.8218740   0.8218740   2.1063990   0.4037610   0.0000000   0.0000000   0.8218740   0.8218740
 AtZNuc=  78.0000000  17.0000000  17.0000000  35.0000000   7.0000000   8.0000000   8.0000000  17.0000000  17.0000000
 Leave Link  101 at Sat Oct 30 01:53:32 2021, MaxMem=  2013265920 cpu:         0.4
 (Enter /scr/programas/g09/l202.exe)
                          Input orientation:                          
 ---------------------------------------------------------------------
 Center     Atomic      Atomic             Coordinates (Angstroms)
 Number     Number       Type             X           Y           Z
 ---------------------------------------------------------------------
      1         78           0       -0.226433   -0.086910    0.013652
      2         17           0       -2.621235   -0.221882    0.151981
      3         17           0       -0.091466   -2.520337    0.057209
      4         35           0        2.295572    0.051078   -0.132859
      5          7           0       -0.354276    1.999182   -0.013868
      6          8           0        0.348446    2.630764    0.751456
      7          8           0       -1.132555    2.516989   -0.790955
      8         17           0       -0.335684   -0.150627   -2.372061
      9         17           0       -0.123995   -0.059217    2.398066
 ---------------------------------------------------------------------
                    Distance matrix (angstroms):
                    1          2          3          4          5
     1  Pt   0.000000
     2  Cl   2.402588   0.000000
     3  Cl   2.437556   3.419299   0.000000
     4  Br   2.530023   4.932609   3.513723   0.000000
     5  N    2.090187   3.178008   4.527712   3.291043   0.000000
     6  O    2.874125   4.161246   5.216258   3.350835   1.215909
     7  O    2.872062   3.256795   5.213243   4.273858   1.215610
     8  Cl   2.389063   3.405820   3.402429   3.460956   3.191097
     9  Cl   2.386774   3.362672   3.396731   3.503149   3.179223
                    6          7          8          9
     6  O    0.000000
     7  O    2.141341   0.000000
     8  Cl   4.237986   3.201730   0.000000
     9  Cl   3.189126   4.221834   4.775697   0.000000
 Stoichiometry    BrCl4NO2Pt(2-)
 Framework group  C1[X(BrCl4NO2Pt)]
 Deg. of freedom    21
 Full point group                 C1      NOp   1
 Largest Abelian subgroup         C1      NOp   1
 Largest concise Abelian subgroup C1      NOp   1
                         Standard orientation:                         
 ---------------------------------------------------------------------
 Center     Atomic      Atomic             Coordinates (Angstroms)
 Number     Number       Type             X           Y           Z
 ---------------------------------------------------------------------
      1         78           0       -0.226433   -0.086910    0.013652
      2         17           0       -2.621235   -0.221881    0.151981
      3         17           0       -0.091467   -2.520337    0.057209
      4         35           0        2.295572    0.051077   -0.132859
      5          7           0       -0.354275    1.999182   -0.013868
      6          8           0        0.348447    2.630764    0.751456
      7          8           0       -1.132554    2.516989   -0.790955
      8         17           0       -0.335684   -0.150627   -2.372061
      9         17           0       -0.123995   -0.059217    2.398066
 ---------------------------------------------------------------------
 Rotational constants (GHZ):      0.5532052      0.4535612      0.4249187
 Leave Link  202 at Sat Oct 30 01:53:32 2021, MaxMem=  2013265920 cpu:         0.0
 (Enter /scr/programas/g09/l301.exe)
 General basis read from cards:  (5D, 7F)
 Centers:       5
 S 6 1.00
     Exponent=  1.2238326969D+04 Coefficients=  5.6000000000D-04
     Exponent=  4.0794423230D+03 Coefficients=  7.7000000000D-04
     Exponent=  1.3598141077D+03 Coefficients=  4.0600000000D-03
     Exponent=  4.5327136922D+02 Coefficients=  1.3910000000D-02
     Exponent=  1.5109045641D+02 Coefficients=  5.2990000000D-02
     Exponent=  5.0363485469D+01 Coefficients=  1.6952000000D-01
 S 1 1.00
     Exponent=  1.6787828490D+01 Coefficients=  1.0000000000D+00
 S 1 1.00
     Exponent=  5.5959428299D+00 Coefficients=  1.0000000000D+00
 S 1 1.00
     Exponent=  1.8653142766D+00 Coefficients=  1.0000000000D+00
 S 1 1.00
     Exponent=  6.2177142554D-01 Coefficients=  1.0000000000D+00
 S 1 1.00
     Exponent=  2.0725714185D-01 Coefficients=  1.0000000000D+00
 P 4 1.00
     Exponent=  5.4142548249D+01 Coefficients=  3.9700000000D-03
     Exponent=  1.6659245615D+01 Coefficients=  1.9540000000D-02
     Exponent=  5.1259217277D+00 Coefficients=  9.9790000000D-02
     Exponent=  1.5772066854D+00 Coefficients=  3.2845000000D-01
 P 1 1.00
     Exponent=  4.8529436475D-01 Coefficients=  1.0000000000D+00
 P 1 1.00
     Exponent=  1.4932134300D-01 Coefficients=  1.0000000000D+00
 D 1 1.00
     Exponent=  4.7700000000D-01 Coefficients=  1.0000000000D+00
 D 1 1.00
     Exponent=  1.5026000000D-01 Coefficients=  1.0000000000D+00
 ****
 Centers:       6      7
 S 6 1.00
     Exponent=  1.6178118231D+04 Coefficients=  6.0000000000D-04
     Exponent=  5.3927060771D+03 Coefficients=  7.8000000000D-04
     Exponent=  1.7975686924D+03 Coefficients=  4.1000000000D-03
     Exponent=  5.9918956413D+02 Coefficients=  1.3880000000D-02
     Exponent=  1.9972985471D+02 Coefficients=  5.2770000000D-02
     Exponent=  6.6576618236D+01 Coefficients=  1.6924000000D-01
 S 1 1.00
     Exponent=  2.2192206079D+01 Coefficients=  1.0000000000D+00
 S 1 1.00
     Exponent=  7.3974020263D+00 Coefficients=  1.0000000000D+00
 S 1 1.00
     Exponent=  2.4658006754D+00 Coefficients=  1.0000000000D+00
 S 1 1.00
     Exponent=  8.2193355847D-01 Coefficients=  1.0000000000D+00
 S 1 1.00
     Exponent=  2.7397785282D-01 Coefficients=  1.0000000000D+00
 P 4 1.00
     Exponent=  7.3854398670D+01 Coefficients=  4.0200000000D-03
     Exponent=  2.2724430360D+01 Coefficients=  2.0130000000D-02
     Exponent=  6.9921324184D+00 Coefficients=  1.0470000000D-01
     Exponent=  2.1514253595D+00 Coefficients=  3.3605000000D-01
 P 1 1.00
     Exponent=  6.6197703370D-01 Coefficients=  1.0000000000D+00
 P 1 1.00
     Exponent=  2.0368524114D-01 Coefficients=  1.0000000000D+00
 D 1 1.00
     Exponent=  9.2880000000D-01 Coefficients=  1.0000000000D+00
 D 1 1.00
     Exponent=  2.2975000000D-01 Coefficients=  1.0000000000D+00
 ****
 Centers:       2      3      8      9
 S 7 1.00
     Exponent=  7.7142817164D+04 Coefficients=  1.0600000000D-03
     Exponent=  2.8051933514D+04 Coefficients=  6.4000000000D-04
     Exponent=  1.0200703096D+04 Coefficients=  3.9600000000D-03
     Exponent=  3.7093465804D+03 Coefficients=  9.8300000000D-03
     Exponent=  1.3488533020D+03 Coefficients=  3.2690000000D-02
     Exponent=  4.9049210981D+02 Coefficients=  9.9520000000D-02
     Exponent=  1.7836076720D+02 Coefficients=  2.6555000000D-01
 S 1 1.00
     Exponent=  6.4858460801D+01 Coefficients=  1.0000000000D+00
 S 1 1.00
     Exponent=  2.3584894837D+01 Coefficients=  1.0000000000D+00
 S 1 1.00
     Exponent=  8.5763253951D+00 Coefficients=  1.0000000000D+00
 S 1 1.00
     Exponent=  3.1186637801D+00 Coefficients=  1.0000000000D+00
 S 1 1.00
     Exponent=  1.1340595564D+00 Coefficients=  1.0000000000D+00
 S 1 1.00
     Exponent=  4.1238529323D-01 Coefficients=  1.0000000000D+00
 S 1 1.00
     Exponent=  1.4995828845D-01 Coefficients=  1.0000000000D+00
 S 1 1.00
     Exponent=  5.4530286708D-02 Coefficients=  1.0000000000D+00
 P 5 1.00
     Exponent=  6.9498536057D+02 Coefficients=  2.0000000000D-03
     Exponent=  2.3166178686D+02 Coefficients=  8.9500000000D-03
     Exponent=  7.7220595619D+01 Coefficients=  5.1130000000D-02
     Exponent=  2.5740198540D+01 Coefficients=  2.1011000000D-01
     Exponent=  8.5800661799D+00 Coefficients=  4.9738000000D-01
 P 1 1.00
     Exponent=  2.8600220600D+00 Coefficients=  1.0000000000D+00
 P 1 1.00
     Exponent=  9.5334068665D-01 Coefficients=  1.0000000000D+00
 P 1 1.00
     Exponent=  3.1778022888D-01 Coefficients=  1.0000000000D+00
 P 1 1.00
     Exponent=  1.0592674296D-01 Coefficients=  1.0000000000D+00
 P 1 1.00
     Exponent=  3.5308914320D-02 Coefficients=  1.0000000000D+00
 D 1 1.00
     Exponent=  5.5696000000D-01 Coefficients=  1.0000000000D+00
 D 1 1.00
     Exponent=  1.5619100000D-01 Coefficients=  1.0000000000D+00
 ****
 Centers:       4
 S 7 1.00
     Exponent=  3.4867099512D+05 Coefficients=  2.4100000000D-03
     Exponent=  1.3946839805D+05 Coefficients=  1.2000000000D-04
     Exponent=  5.5787359218D+04 Coefficients=  5.8500000000D-03
     Exponent=  2.2314943687D+04 Coefficients=  8.2100000000D-03
     Exponent=  8.9259774750D+03 Coefficients=  2.4090000000D-02
     Exponent=  3.5703909900D+03 Coefficients=  5.7250000000D-02
     Exponent=  1.4281563960D+03 Coefficients=  1.4467000000D-01
 S 1 1.00
     Exponent=  5.7126255840D+02 Coefficients=  1.0000000000D+00
 S 1 1.00
     Exponent=  2.2850502336D+02 Coefficients=  1.0000000000D+00
 S 1 1.00
     Exponent=  9.1402009344D+01 Coefficients=  1.0000000000D+00
 S 1 1.00
     Exponent=  3.6560803737D+01 Coefficients=  1.0000000000D+00
 S 1 1.00
     Exponent=  1.4624321495D+01 Coefficients=  1.0000000000D+00
 S 1 1.00
     Exponent=  5.8497285980D+00 Coefficients=  1.0000000000D+00
 S 1 1.00
     Exponent=  2.3398914392D+00 Coefficients=  1.0000000000D+00
 S 1 1.00
     Exponent=  9.3595657568D-01 Coefficients=  1.0000000000D+00
 S 1 1.00
     Exponent=  3.7438263027D-01 Coefficients=  1.0000000000D+00
 S 1 1.00
     Exponent=  1.4975305211D-01 Coefficients=  1.0000000000D+00
 S 1 1.00
     Exponent=  5.9901220843D-02 Coefficients=  1.0000000000D+00
 P 5 1.00
     Exponent=  4.2715043612D+03 Coefficients=  2.0900000000D-03
     Exponent=  1.5532743132D+03 Coefficients=  5.5700000000D-03
     Exponent=  5.6482702297D+02 Coefficients=  3.0250000000D-02
     Exponent=  2.0539164472D+02 Coefficients=  1.2196000000D-01
     Exponent=  7.4687870806D+01 Coefficients=  3.7861000000D-01
 P 1 1.00
     Exponent=  2.7159225748D+01 Coefficients=  1.0000000000D+00
 P 1 1.00
     Exponent=  9.8760820901D+00 Coefficients=  1.0000000000D+00
 P 1 1.00
     Exponent=  3.5913025782D+00 Coefficients=  1.0000000000D+00
 P 1 1.00
     Exponent=  1.3059282103D+00 Coefficients=  1.0000000000D+00
 P 1 1.00
     Exponent=  4.7488298555D-01 Coefficients=  1.0000000000D+00
 P 1 1.00
     Exponent=  1.7268472202D-01 Coefficients=  1.0000000000D+00
 P 1 1.00
     Exponent=  6.2794444370D-02 Coefficients=  1.0000000000D+00
 P 1 1.00
     Exponent=  2.2834343407D-02 Coefficients=  1.0000000000D+00
 D 4 1.00
     Exponent=  1.5776624282D+02 Coefficients=  7.9800000000D-03
     Exponent=  5.2588747607D+01 Coefficients=  4.9870000000D-02
     Exponent=  1.7529582536D+01 Coefficients=  2.2405000000D-01
     Exponent=  5.8431941786D+00 Coefficients=  4.4250000000D-01
 D 1 1.00
     Exponent=  1.9477313929D+00 Coefficients=  1.0000000000D+00
 D 1 1.00
     Exponent=  6.4924379762D-01 Coefficients=  1.0000000000D+00
 F 1 1.00
     Exponent=  1.6480000000D+00 Coefficients=  1.0000000000D+00
 F 1 1.00
     Exponent=  4.5490000000D-01 Coefficients=  1.0000000000D+00
 ****
 Centers:       1
 S 9 1.00
     Exponent=  2.1644816090D+06 Coefficients=  1.2320000000D-02
     Exponent=  1.0822408045D+06 Coefficients=  1.2970000000D-02
     Exponent=  5.4112040224D+05 Coefficients=  2.6370000000D-02
     Exponent=  2.7056020112D+05 Coefficients=  9.0400000000D-03
     Exponent=  1.3528010056D+05 Coefficients=  3.4980000000D-02
     Exponent=  6.7640050280D+04 Coefficients=  1.2220000000D-02
     Exponent=  3.3820025140D+04 Coefficients=  6.0520000000D-02
     Exponent=  1.6910012570D+04 Coefficients=  6.4930000000D-02
     Exponent=  8.4550062850D+03 Coefficients=  1.3819000000D-01
 S 1 1.00
     Exponent=  4.2275031425D+03 Coefficients=  1.0000000000D+00
 S 1 1.00
     Exponent=  2.1137515713D+03 Coefficients=  1.0000000000D+00
 S 1 1.00
     Exponent=  1.0568757856D+03 Coefficients=  1.0000000000D+00
 S 1 1.00
     Exponent=  5.2843789281D+02 Coefficients=  1.0000000000D+00
 S 1 1.00
     Exponent=  2.6421894641D+02 Coefficients=  1.0000000000D+00
 S 1 1.00
     Exponent=  1.3210947320D+02 Coefficients=  1.0000000000D+00
 S 1 1.00
     Exponent=  6.6054736602D+01 Coefficients=  1.0000000000D+00
 S 1 1.00
     Exponent=  3.3027368301D+01 Coefficients=  1.0000000000D+00
 S 1 1.00
     Exponent=  1.6513684150D+01 Coefficients=  1.0000000000D+00
 S 1 1.00
     Exponent=  8.2568420752D+00 Coefficients=  1.0000000000D+00
 S 1 1.00
     Exponent=  4.1284210376D+00 Coefficients=  1.0000000000D+00
 S 1 1.00
     Exponent=  2.0642105188D+00 Coefficients=  1.0000000000D+00
 S 1 1.00
     Exponent=  1.0321052594D+00 Coefficients=  1.0000000000D+00
 S 1 1.00
     Exponent=  5.1605262970D-01 Coefficients=  1.0000000000D+00
 S 1 1.00
     Exponent=  2.5802631485D-01 Coefficients=  1.0000000000D+00
 S 1 1.00
     Exponent=  1.2901315743D-01 Coefficients=  1.0000000000D+00
 S 1 1.00
     Exponent=  6.4506578713D-02 Coefficients=  1.0000000000D+00
 P 7 1.00
     Exponent=  3.2357915258D+04 Coefficients=  5.0200000000D-03
     Exponent=  1.4381295670D+04 Coefficients=  2.0200000000D-03
     Exponent=  6.3916869645D+03 Coefficients=  1.8070000000D-02
     Exponent=  2.8407497620D+03 Coefficients=  3.6620000000D-02
     Exponent=  1.2625554498D+03 Coefficients=  1.1172000000D-01
     Exponent=  5.6113575545D+02 Coefficients=  2.5586000000D-01
     Exponent=  2.4939366909D+02 Coefficients=  4.2608000000D-01
 P 1 1.00
     Exponent=  1.1084163071D+02 Coefficients=  1.0000000000D+00
 P 1 1.00
     Exponent=  4.9262946981D+01 Coefficients=  1.0000000000D+00
 P 1 1.00
     Exponent=  2.1894643103D+01 Coefficients=  1.0000000000D+00
 P 1 1.00
     Exponent=  9.7309524900D+00 Coefficients=  1.0000000000D+00
 P 1 1.00
     Exponent=  4.3248677733D+00 Coefficients=  1.0000000000D+00
 P 1 1.00
     Exponent=  1.9221634548D+00 Coefficients=  1.0000000000D+00
 P 1 1.00
     Exponent=  8.5429486881D-01 Coefficients=  1.0000000000D+00
 P 1 1.00
     Exponent=  3.7968660836D-01 Coefficients=  1.0000000000D+00
 P 1 1.00
     Exponent=  1.6874960372D-01 Coefficients=  1.0000000000D+00
 P 1 1.00
     Exponent=  7.4999823874D-02 Coefficients=  1.0000000000D+00
 P 1 1.00
     Exponent=  3.3333255055D-02 Coefficients=  1.0000000000D+00
 D 5 1.00
     Exponent=  1.9119003508D+03 Coefficients=  4.3300000000D-03
     Exponent=  7.6476014031D+02 Coefficients=  1.7780000000D-02
     Exponent=  3.0590405613D+02 Coefficients=  8.9710000000D-02
     Exponent=  1.2236162245D+02 Coefficients=  3.1123000000D-01
     Exponent=  4.8944648980D+01 Coefficients=  5.3206000000D-01
 D 1 1.00
     Exponent=  1.9577859592D+01 Coefficients=  1.0000000000D+00
 D 1 1.00
     Exponent=  7.8311438368D+00 Coefficients=  1.0000000000D+00
 D 1 1.00
     Exponent=  3.1324575347D+00 Coefficients=  1.0000000000D+00
 D 1 1.00
     Exponent=  1.2529830139D+00 Coefficients=  1.0000000000D+00
 D 1 1.00
     Exponent=  5.0119320556D-01 Coefficients=  1.0000000000D+00
 D 1 1.00
     Exponent=  2.0047728222D-01 Coefficients=  1.0000000000D+00
 D 1 1.00
     Exponent=  8.0190912889D-02 Coefficients=  1.0000000000D+00
 D 1 1.00
     Exponent=  3.2076365156D-02 Coefficients=  1.0000000000D+00
 F 4 1.00
     Exponent=  8.2289680979D+01 Coefficients=  6.1870000000D-02
     Exponent=  2.9923520356D+01 Coefficients=  2.4823000000D-01
     Exponent=  1.0881280130D+01 Coefficients=  4.9956000000D-01
     Exponent=  3.9568291380D+00 Coefficients=  4.0380000000D-01
 F 1 1.00
     Exponent=  1.4388469593D+00 Coefficients=  1.0000000000D+00
 F 1 1.00
     Exponent=  5.2321707610D-01 Coefficients=  1.0000000000D+00
 G 1 1.00
     Exponent=  2.6700000000D+00 Coefficients=  1.0000000000D+00
 G 1 1.00
     Exponent=  9.0960000000D-01 Coefficients=  1.0000000000D+00
 ****
 Ernie: Thresh=  0.10000D-02 Tol=  0.10000D-05 Strict=F.
 There are   482 symmetry adapted cartesian basis functions of A   symmetry.
 There are   429 symmetry adapted basis functions of A   symmetry.
   429 basis functions,   712 primitive gaussians,   482 cartesian basis functions
   103 alpha electrons      103 beta electrons
       nuclear repulsion energy      3100.2958226477 Hartrees.
 IExCor= 1009 DFT=T Ex=PBE Corr=PBE ExCW=0 ScaHFX=  0.000000
 ScaDFX=  1.000000  1.000000  1.000000  1.000000 ScalE2=  1.000000  1.000000
 IRadAn=      0 IRanWt=     -1 IRanGd=            0 ICorTp=0 IEmpDi=  4
 NAtoms=    9 NActive=    9 NUniq=    9 SFac= 1.00D+00 NAtFMM=   60 NAOKFM=F Big=F
 Integral buffers will be    131072 words long.
 Raffenetti 2 integral format.
 Two-electron integral symmetry is turned on.
 ------------------------------------------------------------------------------
 Polarizable Continuum Model (PCM)
 =================================
 Model                : PCM (using non-symmetric T matrix).
 Atomic radii         : UFF (Universal Force Field).
 Polarization charges : Total charges.
 Charge compensation  : None.
 Solution method      : On-the-fly selection.
 Cavity type          : Scaled VdW (van der Waals Surface) (Alpha=1.100).
 Cavity algorithm     : GePol (No added spheres)
                        Default sphere list used, NSphG=    9.
                        Lebedev-Laikov grids with approx.  5.0 points / Ang**2.
                        Smoothing algorithm: Karplus/York (Gamma=1.0000).
                        Polarization charges: spherical gaussians, with
                                              point-specific exponents (IZeta= 3).
                        Self-potential: point-specific (ISelfS= 7).
                        Self-field    : sphere-specific E.n sum rule (ISelfD= 2).
 Solvent              : Water, Eps=  78.355300 Eps(inf)=   1.777849
 ------------------------------------------------------------------------------
 Spheres list:
 ISph  on   Nord     Re0    Alpha      Xe            Ye            Ze
    1  Pt      1    1.3770  1.100     -0.226433     -0.086910      0.013652
    2  Cl      2    1.9735  1.100     -2.621235     -0.221881      0.151981
    3  Cl      3    1.9735  1.100     -0.091467     -2.520337      0.057209
    4  Br      4    2.0945  1.100      2.295572      0.051077     -0.132859
    5   N      5    1.8300  1.100     -0.354275      1.999182     -0.013868
    6   O      6    1.7500  1.100      0.348447      2.630764      0.751456
    7   O      7    1.7500  1.100     -1.132554      2.516989     -0.790955
    8  Cl      8    1.9735  1.100     -0.335684     -0.150627     -2.372061
    9  Cl      9    1.9735  1.100     -0.123995     -0.059217      2.398066
 ------------------------------------------------------------------------------
 GePol: Number of generator spheres                  =       9
 GePol: Total number of spheres                      =       9
 GePol: Number of exposed spheres                    =       8 ( 88.89%)
 GePol: Number of points                             =    1426
 GePol: Average weight of points                     =       0.16
 GePol: Minimum weight of points                     =   0.59D-07
 GePol: Maximum weight of points                     =    0.21616
 GePol: Number of points with low weight             =      28
 GePol: Fraction of low-weight points (<1% of avg)   =       1.96%
 GePol: Cavity surface area                          =    233.298 Ang**2
 GePol: Cavity volume                                =    245.118 Ang**3
 Leave Link  301 at Sat Oct 30 01:53:32 2021, MaxMem=  2013265920 cpu:         0.8
 (Enter /scr/programas/g09/l302.exe)
 NPDir=0 NMtPBC=     1 NCelOv=     1 NCel=       1 NClECP=     1 NCelD=      1
         NCelK=      1 NCelE2=     1 NClLst=     1 CellRange=     0.0.
 One-electron integrals computed using PRISM.
 NBasis=   429 RedAO= T EigKep=  8.31D-05  NBF=   429
 NBsUse=   429 1.00D-06 EigRej= -1.00D+00 NBFU=   429
 Precomputing XC quadrature grid using
 IXCGrd= 4 IRadAn=           0 IRanWt=          -1 IRanGd=           0 AccXCQ= 0.00D+00.
 Defaulting to unpruned grid for atomic number  78.
 Generated NRdTot=       0 NPtTot=           0 NUsed=           0 NTot=          32
 NSgBfM=   445   445   445   445   445 MxSgAt=     9 MxSgA2=     9.
 Leave Link  302 at Sat Oct 30 01:53:33 2021, MaxMem=  2013265920 cpu:         2.5
 (Enter /scr/programas/g09/l308.exe)
 Leave Link  308 at Sat Oct 30 01:53:33 2021, MaxMem=  2013265920 cpu:         0.4
 (Enter /scr/programas/g09/l303.exe)
 DipDrv:  MaxL=1.
 Leave Link  303 at Sat Oct 30 01:53:33 2021, MaxMem=  2013265920 cpu:         0.3
 (Enter /scr/programas/g09/l401.exe)
 ExpMin= 2.28D-02 ExpMax= 2.16D+06 ExpMxC= 2.16D+06 IAcc=4 IRadAn=    199590 AccDes= 0.00D+00
 Harris functional with IExCor= 1009 and IRadAn=  199590 diagonalized for initial guess.
 HarFok:  IExCor= 1009 AccDes= 0.00D+00 IRadAn=    199590 IDoV= 1 UseB2=F ITyADJ=14
 ICtDFT=  3500011 ScaDFX=  1.000000  1.000000  1.000000  1.000000
 FoFCou: FMM=F IPFlag=           0 FMFlag=      100000 FMFlg1=           0
         NFxFlg=           0 DoJE=T BraDBF=F KetDBF=T FulRan=T
         wScrn=  0.000000 ICntrl=     500 IOpCl=  0 I1Cent=   200000004 NGrid=           0
         NMat0=    1 NMatS0=      1 NMatT0=    0 NMatD0=    1 NMtDS0=    0 NMtDT0=    0
 Petite list used in FoFCou.
 Harris En= -21737.0915893432    
 JPrj=0 DoOrth=F DoCkMO=F.
 Leave Link  401 at Sat Oct 30 01:53:47 2021, MaxMem=  2013265920 cpu:        54.1
 (Enter /scr/programas/g09/l502.exe)
 Closed shell SCF:
 Using DIIS extrapolation, IDIIS=  1040.
 Integral symmetry usage will be decided dynamically.
 IVT=      745900 IEndB=      745900 NGot=  2013265920 MDV=  2012793227
 LenX=  2012793227 LenY=  2012560421
 Requested convergence on RMS density matrix=1.00D-08 within 200 cycles.
 Requested convergence on MAX density matrix=1.00D-06.
 Requested convergence on             energy=1.00D-06.
 No special actions if energy rises.
 Fock matrices will be formed incrementally for  20 cycles.

 Cycle   1  Pass 1  IDiag  1:
 FoFJK:  IHMeth= 1 ICntrl=     500 DoSepK=F KAlg= 0 I1Cent=   0 FoldK=F
 IRaf= 800000000 NMat=   1 IRICut=       1 DoRegI=T DoRafI=F ISym2E= 0.
 FoFCou: FMM=F IPFlag=           0 FMFlag=      100000 FMFlg1=           0
         NFxFlg=           0 DoJE=T BraDBF=F KetDBF=F FulRan=T
         wScrn=  0.000000 ICntrl=     500 IOpCl=  0 I1Cent=           0 NGrid=           0
         NMat0=    1 NMatS0=      1 NMatT0=    0 NMatD0=    1 NMtDS0=    0 NMtDT0=    0
 Symmetry not used in FoFCou.
 Defaulting to unpruned grid for atomic number  78.
 Defaulting to unpruned grid for atomic number  78.
 Defaulting to unpruned grid for atomic number  78.
 Defaulting to unpruned grid for atomic number  78.
 Inv3:  Mode=1 IEnd=     6100428.
 Iteration    1 A*A^-1 deviation from unit magnitude is 6.22D-15 for    157.
 Iteration    1 A*A^-1 deviation from orthogonality  is 3.93D-15 for   1008    428.
 Iteration    1 A^-1*A deviation from unit magnitude is 5.77D-15 for    989.
 Iteration    1 A^-1*A deviation from orthogonality  is 2.16D-14 for   1224    326.
 E= -21718.8143351283    
 DIIS: error= 4.76D-01 at cycle   1 NSaved=   1.
 NSaved= 1 IEnMin= 1 EnMin= -21718.8143351283     IErMin= 1 ErrMin= 4.76D-01
 ErrMax= 4.76D-01  0.00D+00 EMaxC= 1.00D-01 BMatC= 3.17D+02 BMatP= 3.17D+02
 IDIUse=3 WtCom= 0.00D+00 WtEn= 1.00D+00
 Coeff-Com:  0.100D+01
 Coeff-En:   0.100D+01
 Coeff:      0.100D+01
 Gap=     0.698 Goal=   None    Shift=    0.000
 GapD=    0.698 DampG=2.000 DampE=0.125 DampFc=0.2500 IDamp=-1.
 Damping current iteration by 2.50D-01
 RMSDP=1.53D-02 MaxDP=1.57D+00              OVMax= 8.49D-01

 Cycle   2  Pass 1  IDiag  1:
 RMSU=  3.78D-03    CP:  1.02D+00
 E= -21720.6221895999     Delta-E=       -1.807854471605 Rises=F Damp=T
 DIIS: error= 3.56D-01 at cycle   2 NSaved=   2.
 NSaved= 2 IEnMin= 2 EnMin= -21720.6221895999     IErMin= 2 ErrMin= 3.56D-01
 ErrMax= 3.56D-01  0.00D+00 EMaxC= 1.00D-01 BMatC= 1.52D+02 BMatP= 3.17D+02
 IDIUse=3 WtCom= 0.00D+00 WtEn= 1.00D+00
 Coeff-Com: -0.192D+01 0.292D+01
 Coeff-En:   0.743D-01 0.926D+00
 Coeff:      0.743D-01 0.926D+00
 Gap=     0.055 Goal=   None    Shift=    0.000
 RMSDP=5.24D-03 MaxDP=2.59D-01 DE=-1.81D+00 OVMax= 9.92D-01

 Cycle   3  Pass 1  IDiag  1:
 RMSU=  5.17D-03    CP:  1.02D+00  7.79D-01
 E= -21719.6368521292     Delta-E=        0.985337470687 Rises=F Damp=F
 DIIS: error= 1.17D-01 at cycle   3 NSaved=   3.
 NSaved= 3 IEnMin= 2 EnMin= -21720.6221895999     IErMin= 3 ErrMin= 1.17D-01
 ErrMax= 1.17D-01  0.00D+00 EMaxC= 1.00D-01 BMatC= 1.37D+01 BMatP= 1.52D+02
 IDIUse=3 WtCom= 0.00D+00 WtEn= 1.00D+00
 EnCoef did     5 forward-backward iterations
 Coeff-Com:  0.531D+00-0.558D+00 0.103D+01
 Coeff-En:   0.392D+00 0.102D+00 0.506D+00
 Coeff:      0.392D+00 0.102D+00 0.506D+00
 Gap=    -0.083 Goal=   None    Shift=    0.000
 RMSDP=3.09D-02 MaxDP=5.93D+00 DE= 9.85D-01 OVMax= 9.69D-01

 Cycle   4  Pass 1  IDiag  1:
 RMSU=  3.06D-02    CP:  1.02D+00  9.75D-01  1.70D-01
 E= -21715.1164554858     Delta-E=        4.520396643406 Rises=F Damp=F
 DIIS: error= 8.60D-02 at cycle   4 NSaved=   4.
 NSaved= 4 IEnMin= 2 EnMin= -21720.6221895999     IErMin= 4 ErrMin= 8.60D-02
 ErrMax= 8.60D-02  0.00D+00 EMaxC= 1.00D-01 BMatC= 7.18D+00 BMatP= 1.37D+01
 IDIUse=3 WtCom= 1.40D-01 WtEn= 8.60D-01
 EnCoef did   100 forward-backward iterations
 Coeff-Com:  0.698D+00-0.855D+00 0.578D+00 0.579D+00
 Coeff-En:   0.327D+00 0.772D-02 0.439D+00 0.227D+00
 Coeff:      0.379D+00-0.113D+00 0.458D+00 0.276D+00
 Gap=     0.028 Goal=   None    Shift=    0.000
 RMSDP=3.06D-02 MaxDP=5.93D+00 DE= 4.52D+00 OVMax= 9.07D-01

 Cycle   5  Pass 1  IDiag  1:
 RMSU=  1.83D-03    CP:  1.01D+00  2.51D-01  2.32D-01  3.82D-03
 E= -21722.9529960706     Delta-E=       -7.836540584824 Rises=F Damp=F
 DIIS: error= 4.13D-02 at cycle   5 NSaved=   5.
 NSaved= 5 IEnMin= 5 EnMin= -21722.9529960706     IErMin= 5 ErrMin= 4.13D-02
 ErrMax= 4.13D-02  0.00D+00 EMaxC= 1.00D-01 BMatC= 1.61D+00 BMatP= 7.18D+00
 IDIUse=3 WtCom= 5.87D-01 WtEn= 4.13D-01
 EnCoef did     2 forward-backward iterations
 Coeff-Com: -0.292D+00 0.438D+00 0.260D-01 0.387D-01 0.789D+00
 Coeff-En:   0.000D+00 0.000D+00 0.231D+00 0.108D+00 0.661D+00
 Coeff:     -0.171D+00 0.257D+00 0.111D+00 0.674D-01 0.736D+00
 Gap=     0.271 Goal=   None    Shift=    0.000
 RMSDP=4.55D-03 MaxDP=3.02D-01 DE=-7.84D+00 OVMax= 7.41D-01

 Cycle   6  Pass 1  IDiag  1:
 RMSU=  2.88D-03    CP:  1.01D+00  7.78D-01  6.95D-01  5.71D-03  1.02D-01
 E= -21721.2695287554     Delta-E=        1.683467315161 Rises=F Damp=F
 DIIS: error= 5.56D-02 at cycle   6 NSaved=   6.
 NSaved= 6 IEnMin= 5 EnMin= -21722.9529960706     IErMin= 5 ErrMin= 4.13D-02
 ErrMax= 5.56D-02  0.00D+00 EMaxC= 1.00D-01 BMatC= 2.33D+00 BMatP= 1.61D+00
 IDIUse=2 WtCom= 0.00D+00 WtEn= 1.00D+00
 EnCoef did     2 forward-backward iterations
 Coeff-En:   0.000D+00 0.000D+00 0.000D+00 0.217D-01 0.639D+00 0.339D+00
 Coeff:      0.000D+00 0.000D+00 0.000D+00 0.217D-01 0.639D+00 0.339D+00
 Gap=    -0.058 Goal=   None    Shift=    0.000
 RMSDP=3.69D-03 MaxDP=3.16D-01 DE= 1.68D+00 OVMax= 8.96D-01

 Cycle   7  Pass 1  IDiag  1:
 RMSU=  2.93D-03    CP:  1.01D+00  7.13D-01  4.34D-01  1.75D-02  7.83D-01
                    CP:  5.76D-01
 E= -21721.2543069506     Delta-E=        0.015221804784 Rises=F Damp=F
 DIIS: error= 4.76D-02 at cycle   7 NSaved=   7.
 NSaved= 7 IEnMin= 5 EnMin= -21722.9529960706     IErMin= 5 ErrMin= 4.13D-02
 ErrMax= 4.76D-02  0.00D+00 EMaxC= 1.00D-01 BMatC= 2.58D+00 BMatP= 1.61D+00
 IDIUse=2 WtCom= 0.00D+00 WtEn= 1.00D+00
 EnCoef did     2 forward-backward iterations
 Coeff-En:   0.000D+00 0.000D+00 0.000D+00 0.000D+00 0.584D+00 0.225D+00
 Coeff-En:   0.191D+00
 Coeff:      0.000D+00 0.000D+00 0.000D+00 0.000D+00 0.584D+00 0.225D+00
 Coeff:      0.191D+00
 Gap=     0.000 Goal=   None    Shift=    0.000
 RMSDP=3.25D-03 MaxDP=1.40D-01 DE= 1.52D-02 OVMax= 8.08D-01

 Cycle   8  Pass 1  IDiag  1:
 RMSU=  1.68D-03    CP:  1.01D+00  5.20D-01  4.67D-01  3.43D-03  8.31D-01
                    CP:  1.99D-01  1.77D-01
 E= -21723.8349852242     Delta-E=       -2.580678273585 Rises=F Damp=F
 DIIS: error= 1.82D-02 at cycle   8 NSaved=   8.
 NSaved= 8 IEnMin= 8 EnMin= -21723.8349852242     IErMin= 8 ErrMin= 1.82D-02
 ErrMax= 1.82D-02  0.00D+00 EMaxC= 1.00D-01 BMatC= 3.44D-01 BMatP= 1.61D+00
 IDIUse=3 WtCom= 8.18D-01 WtEn= 1.82D-01
 EnCoef did     2 forward-backward iterations
 Coeff-Com: -0.110D+00 0.151D+00-0.981D-01 0.109D-01 0.355D+00 0.107D+00
 Coeff-Com: -0.201D-01 0.605D+00
 Coeff-En:   0.000D+00 0.000D+00 0.000D+00 0.000D+00 0.243D+00 0.000D+00
 Coeff-En:   0.623D-02 0.751D+00
 Coeff:     -0.898D-01 0.123D+00-0.802D-01 0.891D-02 0.335D+00 0.872D-01
 Coeff:     -0.153D-01 0.631D+00
 Gap=     0.089 Goal=   None    Shift=    0.000
 RMSDP=1.74D-03 MaxDP=1.25D-01 DE=-2.58D+00 OVMax= 2.90D-01

 Cycle   9  Pass 1  IDiag  1:
 RMSU=  1.58D-03    CP:  1.01D+00  4.34D-01  4.37D-01  4.82D-03  7.99D-01
                    CP:  2.48D-01  1.37D-01  6.56D-01
 E= -21723.9741031984     Delta-E=       -0.139117974140 Rises=F Damp=F
 DIIS: error= 1.41D-02 at cycle   9 NSaved=   9.
 NSaved= 9 IEnMin= 9 EnMin= -21723.9741031984     IErMin= 9 ErrMin= 1.41D-02
 ErrMax= 1.41D-02  0.00D+00 EMaxC= 1.00D-01 BMatC= 1.08D-01 BMatP= 3.44D-01
 IDIUse=3 WtCom= 8.59D-01 WtEn= 1.41D-01
 EnCoef did     5 forward-backward iterations
 Coeff-Com: -0.503D-01 0.688D-01-0.449D-01-0.230D-02 0.174D+00 0.593D-03
 Coeff-Com:  0.987D-02 0.431D+00 0.414D+00
 Coeff-En:   0.000D+00 0.000D+00 0.000D+00 0.000D+00 0.421D-01 0.000D+00
 Coeff-En:   0.000D+00 0.353D+00 0.605D+00
 Coeff:     -0.432D-01 0.590D-01-0.385D-01-0.197D-02 0.155D+00 0.509D-03
 Coeff:      0.847D-02 0.420D+00 0.441D+00
 Gap=     0.068 Goal=   None    Shift=    0.000
 RMSDP=1.02D-03 MaxDP=7.23D-02 DE=-1.39D-01 OVMax= 1.65D-01

 Cycle  10  Pass 1  IDiag  1:
 RMSU=  3.47D-04    CP:  1.01D+00  4.49D-01  4.15D-01  3.97D-03  8.93D-01
                    CP:  1.86D-01  1.32D-01  7.71D-01  4.38D-01
 E= -21724.0914129722     Delta-E=       -0.117309773843 Rises=F Damp=F
 DIIS: error= 3.55D-03 at cycle  10 NSaved=  10.
 NSaved=10 IEnMin=10 EnMin= -21724.0914129722     IErMin=10 ErrMin= 3.55D-03
 ErrMax= 3.55D-03  0.00D+00 EMaxC= 1.00D-01 BMatC= 7.07D-03 BMatP= 1.08D-01
 IDIUse=3 WtCom= 9.65D-01 WtEn= 3.55D-02
 Coeff-Com: -0.228D-01 0.308D-01-0.176D-01-0.156D-02 0.582D-01-0.947D-04
 Coeff-Com:  0.101D-01 0.153D+00 0.225D+00 0.565D+00
 Coeff-En:   0.000D+00 0.000D+00 0.000D+00 0.000D+00 0.000D+00 0.000D+00
 Coeff-En:   0.000D+00 0.000D+00 0.000D+00 0.100D+01
 Coeff:     -0.220D-01 0.297D-01-0.169D-01-0.150D-02 0.561D-01-0.914D-04
 Coeff:      0.972D-02 0.148D+00 0.217D+00 0.580D+00
 Gap=     0.069 Goal=   None    Shift=    0.000
 RMSDP=2.48D-04 MaxDP=1.39D-02 DE=-1.17D-01 OVMax= 5.45D-02

 Cycle  11  Pass 1  IDiag  1:
 RMSU=  2.00D-04    CP:  1.01D+00  4.46D-01  4.17D-01  4.22D-03  8.90D-01
                    CP:  1.88D-01  1.43D-01  7.64D-01  4.81D-01  6.46D-01
 E= -21724.0904185205     Delta-E=        0.000994451704 Rises=F Damp=F
 DIIS: error= 5.86D-03 at cycle  11 NSaved=  11.
 NSaved=11 IEnMin=10 EnMin= -21724.0914129722     IErMin=10 ErrMin= 3.55D-03
 ErrMax= 5.86D-03  0.00D+00 EMaxC= 1.00D-01 BMatC= 7.87D-03 BMatP= 7.07D-03
 IDIUse=3 WtCom= 9.65D-01 WtEn= 3.55D-02
 Coeff-Com: -0.138D-01 0.186D-01-0.940D-02-0.771D-03 0.230D-01 0.121D-02
 Coeff-Com:  0.732D-02 0.570D-01 0.123D+00 0.498D+00 0.296D+00
 Coeff-En:   0.000D+00 0.000D+00 0.000D+00 0.000D+00 0.000D+00 0.000D+00
 Coeff-En:   0.000D+00 0.000D+00 0.000D+00 0.537D+00 0.463D+00
 Coeff:     -0.133D-01 0.179D-01-0.907D-02-0.744D-03 0.222D-01 0.117D-02
 Coeff:      0.706D-02 0.550D-01 0.118D+00 0.500D+00 0.302D+00
 Gap=     0.068 Goal=   None    Shift=    0.000
 RMSDP=1.53D-04 MaxDP=7.60D-03 DE= 9.94D-04 OVMax= 4.82D-02

 Cycle  12  Pass 1  IDiag  1:
 RMSU=  1.04D-04    CP:  1.01D+00  4.44D-01  4.16D-01  4.27D-03  8.93D-01
                    CP:  1.87D-01  1.45D-01  7.59D-01  4.81D-01  7.55D-01
                    CP:  4.76D-01
 E= -21724.0955419494     Delta-E=       -0.005123428877 Rises=F Damp=F
 DIIS: error= 2.12D-03 at cycle  12 NSaved=  12.
 NSaved=12 IEnMin=12 EnMin= -21724.0955419494     IErMin=12 ErrMin= 2.12D-03
 ErrMax= 2.12D-03  0.00D+00 EMaxC= 1.00D-01 BMatC= 1.28D-03 BMatP= 7.07D-03
 IDIUse=3 WtCom= 9.79D-01 WtEn= 2.12D-02
 Coeff-Com: -0.544D-02 0.718D-02-0.316D-02-0.135D-03 0.625D-03 0.937D-03
 Coeff-Com:  0.442D-02 0.136D-02 0.427D-01 0.237D+00 0.264D+00 0.451D+00
 Coeff-En:   0.000D+00 0.000D+00 0.000D+00 0.000D+00 0.000D+00 0.000D+00
 Coeff-En:   0.000D+00 0.000D+00 0.000D+00 0.000D+00 0.196D+00 0.804D+00
 Coeff:     -0.533D-02 0.703D-02-0.309D-02-0.132D-03 0.612D-03 0.918D-03
 Coeff:      0.433D-02 0.133D-02 0.418D-01 0.232D+00 0.262D+00 0.458D+00
 Gap=     0.068 Goal=   None    Shift=    0.000
 RMSDP=7.63D-05 MaxDP=3.39D-03 DE=-5.12D-03 OVMax= 1.43D-02

 Cycle  13  Pass 1  IDiag  1:
 RMSU=  4.17D-05    CP:  1.01D+00  4.48D-01  4.15D-01  4.29D-03  8.94D-01
                    CP:  1.89D-01  1.45D-01  7.61D-01  4.80D-01  8.15D-01
                    CP:  5.04D-01  4.38D-01
 E= -21724.0964789932     Delta-E=       -0.000937043849 Rises=F Damp=F
 DIIS: error= 2.07D-04 at cycle  13 NSaved=  13.
 NSaved=13 IEnMin=13 EnMin= -21724.0964789932     IErMin=13 ErrMin= 2.07D-04
 ErrMax= 2.07D-04  0.00D+00 EMaxC= 1.00D-01 BMatC= 1.11D-04 BMatP= 1.28D-03
 IDIUse=3 WtCom= 9.98D-01 WtEn= 2.07D-03
 Coeff-Com: -0.107D-02 0.136D-02-0.388D-03 0.287D-03-0.366D-02-0.362D-03
 Coeff-Com:  0.226D-02-0.542D-02 0.151D-01 0.584D-01 0.103D+00 0.271D+00
 Coeff-Com:  0.560D+00
 Coeff-En:   0.000D+00 0.000D+00 0.000D+00 0.000D+00 0.000D+00 0.000D+00
 Coeff-En:   0.000D+00 0.000D+00 0.000D+00 0.000D+00 0.000D+00 0.405D-01
 Coeff-En:   0.960D+00
 Coeff:     -0.107D-02 0.136D-02-0.388D-03 0.286D-03-0.365D-02-0.361D-03
 Coeff:      0.225D-02-0.541D-02 0.151D-01 0.583D-01 0.102D+00 0.270D+00
 Coeff:      0.561D+00
 Gap=     0.067 Goal=   None    Shift=    0.000
 RMSDP=3.31D-05 MaxDP=3.10D-03 DE=-9.37D-04 OVMax= 5.54D-03

 Cycle  14  Pass 1  IDiag  1:
 RMSU=  1.68D-05    CP:  1.01D+00  4.48D-01  4.16D-01  4.33D-03  8.91D-01
                    CP:  1.91D-01  1.46D-01  7.60D-01  4.94D-01  8.00D-01
                    CP:  5.31D-01  5.49D-01  8.10D-01
 E= -21724.0965755047     Delta-E=       -0.000096511445 Rises=F Damp=F
 DIIS: error= 1.68D-04 at cycle  14 NSaved=  14.
 NSaved=14 IEnMin=14 EnMin= -21724.0965755047     IErMin=14 ErrMin= 1.68D-04
 ErrMax= 1.68D-04  0.00D+00 EMaxC= 1.00D-01 BMatC= 2.29D-05 BMatP= 1.11D-04
 IDIUse=3 WtCom= 9.98D-01 WtEn= 1.68D-03
 Coeff-Com: -0.382D-03 0.486D-03-0.832D-04-0.148D-03-0.143D-02-0.643D-03
 Coeff-Com:  0.164D-02-0.302D-02 0.262D-02-0.148D-02 0.225D-01 0.933D-01
 Coeff-Com:  0.358D+00 0.528D+00
 Coeff-En:   0.000D+00 0.000D+00 0.000D+00 0.000D+00 0.000D+00 0.000D+00
 Coeff-En:   0.000D+00 0.000D+00 0.000D+00 0.000D+00 0.000D+00 0.000D+00
 Coeff-En:   0.141D+00 0.859D+00
 Coeff:     -0.381D-03 0.485D-03-0.831D-04-0.148D-03-0.143D-02-0.642D-03
 Coeff:      0.164D-02-0.301D-02 0.261D-02-0.147D-02 0.225D-01 0.931D-01
 Coeff:      0.358D+00 0.529D+00
 Gap=     0.067 Goal=   None    Shift=    0.000
 RMSDP=1.17D-05 MaxDP=6.65D-04 DE=-9.65D-05 OVMax= 1.58D-03

 Cycle  15  Pass 1  IDiag  1:
 RMSU=  6.50D-06    CP:  1.01D+00  4.48D-01  4.16D-01  4.33D-03  8.91D-01
                    CP:  1.90D-01  1.46D-01  7.60D-01  4.92D-01  7.94D-01
                    CP:  5.36D-01  5.67D-01  7.87D-01  4.97D-01
 E= -21724.0965893334     Delta-E=       -0.000013828681 Rises=F Damp=F
 DIIS: error= 7.29D-05 at cycle  15 NSaved=  15.
 NSaved=15 IEnMin=15 EnMin= -21724.0965893334     IErMin=15 ErrMin= 7.29D-05
 ErrMax= 7.29D-05  0.00D+00 EMaxC= 1.00D-01 BMatC= 6.46D-06 BMatP= 2.29D-05
 IDIUse=1 WtCom= 1.00D+00 WtEn= 0.00D+00
 Coeff-Com: -0.508D-05 0.421D-05-0.118D-04 0.620D-04-0.422D-03-0.320D-03
 Coeff-Com:  0.534D-03-0.133D-02-0.353D-02-0.171D-01-0.637D-02 0.821D-02
 Coeff-Com:  0.142D+00 0.366D+00 0.512D+00
 Coeff:     -0.508D-05 0.421D-05-0.118D-04 0.620D-04-0.422D-03-0.320D-03
 Coeff:      0.534D-03-0.133D-02-0.353D-02-0.171D-01-0.637D-02 0.821D-02
 Coeff:      0.142D+00 0.366D+00 0.512D+00
 Gap=     0.067 Goal=   None    Shift=    0.000
 RMSDP=6.83D-06 MaxDP=3.72D-04 DE=-1.38D-05 OVMax= 1.38D-03

 Cycle  16  Pass 1  IDiag  1:
 RMSU=  4.86D-06    CP:  1.01D+00  4.48D-01  4.16D-01  4.35D-03  8.92D-01
                    CP:  1.90D-01  1.47D-01  7.60D-01  4.92D-01  8.00D-01
                    CP:  5.40D-01  5.74D-01  8.31D-01  4.91D-01  7.39D-01
 E= -21724.0965948100     Delta-E=       -0.000005476679 Rises=F Damp=F
 DIIS: error= 2.63D-05 at cycle  16 NSaved=  16.
 NSaved=16 IEnMin=16 EnMin= -21724.0965948100     IErMin=16 ErrMin= 2.63D-05
 ErrMax= 2.63D-05  0.00D+00 EMaxC= 1.00D-01 BMatC= 1.17D-06 BMatP= 6.46D-06
 IDIUse=1 WtCom= 1.00D+00 WtEn= 0.00D+00
 Coeff-Com: -0.521D-04 0.700D-04-0.776D-04 0.157D-04 0.337D-04-0.466D-04
 Coeff-Com:  0.124D-03-0.257D-03-0.317D-02-0.128D-01-0.890D-02-0.111D-01
 Coeff-Com:  0.364D-01 0.146D+00 0.349D+00 0.505D+00
 Coeff:     -0.521D-04 0.700D-04-0.776D-04 0.157D-04 0.337D-04-0.466D-04
 Coeff:      0.124D-03-0.257D-03-0.317D-02-0.128D-01-0.890D-02-0.111D-01
 Coeff:      0.364D-01 0.146D+00 0.349D+00 0.505D+00
 Gap=     0.067 Goal=   None    Shift=    0.000
 RMSDP=3.27D-06 MaxDP=2.44D-04 DE=-5.48D-06 OVMax= 4.28D-04

 Cycle  17  Pass 1  IDiag  1:
 RMSU=  1.31D-06    CP:  1.01D+00  4.48D-01  4.16D-01  4.35D-03  8.92D-01
                    CP:  1.90D-01  1.47D-01  7.60D-01  4.91D-01  8.00D-01
                    CP:  5.41D-01  5.72D-01  8.38D-01  5.79D-01  7.86D-01
                    CP:  5.67D-01
 E= -21724.0965958310     Delta-E=       -0.000001020926 Rises=F Damp=F
 DIIS: error= 6.07D-06 at cycle  17 NSaved=  17.
 NSaved=17 IEnMin=17 EnMin= -21724.0965958310     IErMin=17 ErrMin= 6.07D-06
 ErrMax= 6.07D-06  0.00D+00 EMaxC= 1.00D-01 BMatC= 8.30D-08 BMatP= 1.17D-06
 IDIUse=1 WtCom= 1.00D+00 WtEn= 0.00D+00
 Coeff-Com: -0.182D-04 0.247D-04-0.383D-04 0.198D-05 0.612D-04-0.359D-05
 Coeff-Com:  0.126D-04-0.829D-04-0.113D-02-0.470D-02-0.378D-02-0.622D-02
 Coeff-Com:  0.155D-02 0.174D-01 0.723D-01 0.234D+00 0.690D+00
 Coeff:     -0.182D-04 0.247D-04-0.383D-04 0.198D-05 0.612D-04-0.359D-05
 Coeff:      0.126D-04-0.829D-04-0.113D-02-0.470D-02-0.378D-02-0.622D-02
 Coeff:      0.155D-02 0.174D-01 0.723D-01 0.234D+00 0.690D+00
 Gap=     0.067 Goal=   None    Shift=    0.000
 RMSDP=8.16D-07 MaxDP=6.20D-05 DE=-1.02D-06 OVMax= 1.65D-04

 Cycle  18  Pass 1  IDiag  1:
 RMSU=  5.02D-07    CP:  1.01D+00  4.48D-01  4.16D-01  4.35D-03  8.92D-01
                    CP:  1.90D-01  1.47D-01  7.60D-01  4.91D-01  8.01D-01
                    CP:  5.42D-01  5.73D-01  8.45D-01  5.77D-01  7.82D-01
                    CP:  6.31D-01  7.70D-01
 E= -21724.0965958947     Delta-E=       -0.000000063777 Rises=F Damp=F
 DIIS: error= 5.05D-06 at cycle  18 NSaved=  18.
 NSaved=18 IEnMin=18 EnMin= -21724.0965958947     IErMin=18 ErrMin= 5.05D-06
 ErrMax= 5.05D-06  0.00D+00 EMaxC= 1.00D-01 BMatC= 2.29D-08 BMatP= 8.30D-08
 IDIUse=1 WtCom= 1.00D+00 WtEn= 0.00D+00
 Coeff-Com: -0.547D-05 0.798D-05-0.125D-04 0.144D-05 0.441D-04-0.233D-05
 Coeff-Com: -0.524D-06-0.876D-04-0.300D-03-0.112D-02-0.939D-03-0.180D-02
 Coeff-Com: -0.251D-02-0.851D-02-0.226D-02 0.863D-01 0.393D+00 0.538D+00
 Coeff:     -0.547D-05 0.798D-05-0.125D-04 0.144D-05 0.441D-04-0.233D-05
 Coeff:     -0.524D-06-0.876D-04-0.300D-03-0.112D-02-0.939D-03-0.180D-02
 Coeff:     -0.251D-02-0.851D-02-0.226D-02 0.863D-01 0.393D+00 0.538D+00
 Gap=     0.067 Goal=   None    Shift=    0.000
 RMSDP=3.88D-07 MaxDP=3.06D-05 DE=-6.38D-08 OVMax= 4.97D-05

 Cycle  19  Pass 1  IDiag  1:
 RMSU=  1.83D-07    CP:  1.01D+00  4.48D-01  4.16D-01  4.35D-03  8.92D-01
                    CP:  1.90D-01  1.47D-01  7.60D-01  4.91D-01  8.01D-01
                    CP:  5.42D-01  5.74D-01  8.46D-01  5.70D-01  7.86D-01
                    CP:  6.37D-01  8.43D-01  5.02D-01
 E= -21724.0965959132     Delta-E=       -0.000000018474 Rises=F Damp=F
 DIIS: error= 1.62D-06 at cycle  19 NSaved=  19.
 NSaved=19 IEnMin=19 EnMin= -21724.0965959132     IErMin=19 ErrMin= 1.62D-06
 ErrMax= 1.62D-06  0.00D+00 EMaxC= 1.00D-01 BMatC= 2.80D-09 BMatP= 2.29D-08
 IDIUse=1 WtCom= 1.00D+00 WtEn= 0.00D+00
 Coeff-Com: -0.235D-05 0.356D-05-0.493D-05 0.896D-06 0.241D-04-0.942D-06
 Coeff-Com:  0.197D-06-0.588D-04-0.699D-04-0.154D-03-0.179D-03-0.479D-03
 Coeff-Com: -0.216D-02-0.838D-02-0.111D-01 0.325D-01 0.156D+00 0.314D+00
 Coeff-Com:  0.520D+00
 Coeff:     -0.235D-05 0.356D-05-0.493D-05 0.896D-06 0.241D-04-0.942D-06
 Coeff:      0.197D-06-0.588D-04-0.699D-04-0.154D-03-0.179D-03-0.479D-03
 Coeff:     -0.216D-02-0.838D-02-0.111D-01 0.325D-01 0.156D+00 0.314D+00
 Coeff:      0.520D+00
 Gap=     0.067 Goal=   None    Shift=    0.000
 RMSDP=1.57D-07 MaxDP=1.27D-05 DE=-1.85D-08 OVMax= 2.91D-05

 Cycle  20  Pass 1  IDiag  1:
 RMSU=  8.07D-08    CP:  1.01D+00  4.48D-01  4.16D-01  4.35D-03  8.92D-01
                    CP:  1.90D-01  1.47D-01  7.60D-01  4.91D-01  8.01D-01
                    CP:  5.42D-01  5.74D-01  8.46D-01  5.69D-01  7.87D-01
                    CP:  6.40D-01  8.47D-01  6.31D-01  4.64D-01
 E= -21724.0965959159     Delta-E=       -0.000000002641 Rises=F Damp=F
 DIIS: error= 7.42D-07 at cycle  20 NSaved=  20.
 NSaved=20 IEnMin=20 EnMin= -21724.0965959159     IErMin=20 ErrMin= 7.42D-07
 ErrMax= 7.42D-07  0.00D+00 EMaxC= 1.00D-01 BMatC= 6.25D-10 BMatP= 2.80D-09
 IDIUse=1 WtCom= 1.00D+00 WtEn= 0.00D+00
 Coeff-Com: -0.852D-06 0.121D-05-0.169D-05-0.142D-06 0.738D-05 0.601D-06
 Coeff-Com:  0.718D-06-0.270D-04 0.123D-04 0.104D-03 0.401D-04 0.467D-05
 Coeff-Com: -0.113D-02-0.425D-02-0.808D-02 0.568D-02 0.182D-01 0.876D-01
 Coeff-Com:  0.360D+00 0.542D+00
 Coeff:     -0.852D-06 0.121D-05-0.169D-05-0.142D-06 0.738D-05 0.601D-06
 Coeff:      0.718D-06-0.270D-04 0.123D-04 0.104D-03 0.401D-04 0.467D-05
 Coeff:     -0.113D-02-0.425D-02-0.808D-02 0.568D-02 0.182D-01 0.876D-01
 Coeff:      0.360D+00 0.542D+00
 Gap=     0.067 Goal=   None    Shift=    0.000
 RMSDP=7.73D-08 MaxDP=6.21D-06 DE=-2.64D-09 OVMax= 1.47D-05

 Cycle  21  Pass 1  IDiag  1:
 Restarting incremental Fock formation.
 E= -21724.0965959170     Delta-E=       -0.000000001142 Rises=F Damp=F
 DIIS: error= 2.92D-07 at cycle  21 NSaved=  20.
 NSaved=20 IEnMin=20 EnMin= -21724.0965959170     IErMin=20 ErrMin= 2.92D-07
 ErrMax= 2.92D-07  0.00D+00 EMaxC= 1.00D-01 BMatC= 7.43D-11 BMatP= 6.25D-10
 IDIUse=1 WtCom= 1.00D+00 WtEn= 0.00D+00
 Coeff-Com:  0.582D-07-0.943D-07-0.501D-06 0.128D-05 0.774D-06-0.205D-06
 Coeff-Com: -0.132D-04 0.121D-04 0.524D-04 0.263D-04 0.475D-04-0.392D-03
 Coeff-Com: -0.156D-02-0.377D-02 0.548D-03-0.315D-02 0.180D-01 0.159D+00
 Coeff-Com:  0.342D+00 0.490D+00
 Coeff:      0.582D-07-0.943D-07-0.501D-06 0.128D-05 0.774D-06-0.205D-06
 Coeff:     -0.132D-04 0.121D-04 0.524D-04 0.263D-04 0.475D-04-0.392D-03
 Coeff:     -0.156D-02-0.377D-02 0.548D-03-0.315D-02 0.180D-01 0.159D+00
 Coeff:      0.342D+00 0.490D+00
 Gap=     0.067 Goal=   None    Shift=    0.000
 RMSDP=2.21D-08 MaxDP=1.70D-06 DE=-1.14D-09 OVMax= 2.86D-06

 Cycle  22  Pass 1  IDiag  1:
 RMSU=  2.21D-08    CP:  1.00D+00
 E= -21724.0965959173     Delta-E=       -0.000000000273 Rises=F Damp=F
 DIIS: error= 4.59D-08 at cycle  22 NSaved=  20.
 NSaved=20 IEnMin=20 EnMin= -21724.0965959173     IErMin=20 ErrMin= 4.59D-08
 ErrMax= 4.59D-08  0.00D+00 EMaxC= 1.00D-01 BMatC= 2.50D-12 BMatP= 7.43D-11
 IDIUse=1 WtCom= 1.00D+00 WtEn= 0.00D+00
 Coeff-Com:  0.244D-08-0.437D-07 0.190D-06 0.155D-06-0.451D-07-0.319D-05
 Coeff-Com:  0.231D-05 0.488D-05 0.235D-05 0.971D-05-0.240D-04-0.109D-03
 Coeff-Com: -0.371D-03 0.178D-03-0.104D-02-0.163D-03 0.353D-01 0.793D-01
 Coeff-Com:  0.121D+00 0.766D+00
 Coeff:      0.244D-08-0.437D-07 0.190D-06 0.155D-06-0.451D-07-0.319D-05
 Coeff:      0.231D-05 0.488D-05 0.235D-05 0.971D-05-0.240D-04-0.109D-03
 Coeff:     -0.371D-03 0.178D-03-0.104D-02-0.163D-03 0.353D-01 0.793D-01
 Coeff:      0.121D+00 0.766D+00
 Gap=     0.067 Goal=   None    Shift=    0.000
 RMSDP=4.20D-09 MaxDP=2.32D-07 DE=-2.73D-10 OVMax= 7.41D-07

 Error on total polarization charges =  0.03422
 SCF Done:  E(RPBE-PBE) =  -21724.0965959     A.U. after   22 cycles
            NFock= 22  Conv=0.42D-08     -V/T= 2.0146
 KE= 2.141112452215D+04 PE=-5.776571277712D+04 EE= 1.153019583640D+04
 Leave Link  502 at Sat Oct 30 02:02:27 2021, MaxMem=  2013265920 cpu:      2072.4
 (Enter /scr/programas/g09/l801.exe)
 Range of M.O.s used for correlation:     1   429
 NBasis=   429 NAE=   103 NBE=   103 NFC=     0 NFV=     0
 NROrb=    429 NOA=   103 NOB=   103 NVA=   326 NVB=   326

 **** Warning!!: The largest alpha MO coefficient is  0.26335796D+02


 **** Warning!!: The smallest alpha delta epsilon is  0.66818004D-01

 Leave Link  801 at Sat Oct 30 02:02:27 2021, MaxMem=  2013265920 cpu:         0.1
 (Enter /scr/programas/g09/l1002.exe)
 Minotr:  Closed shell wavefunction.
 NEqPCM:  Using equilibrium solvation (IEInf=0, Eps=  78.3553, EpsInf=   1.7778)
          Direct CPHF calculation.
          Differentiating once with respect to magnetic field using GIAOs.
          Electric field/nuclear overlap derivatives assumed to be zero.
          Requested convergence is 1.0D-08 RMS, and 1.0D-07 maximum.
          Secondary convergence is 1.0D-12 RMS, and 1.0D-12 maximum.
          NewPWx=T KeepS1=F KeepF1=F KeepIn=T MapXYZ=F SortEE=F KeepMc=T.
          MDV=    2013265415 using IRadAn=       2.
 Defaulting to unpruned grid for atomic number  78.
 Generate precomputed XC quadrature information.
          Solving linear equations simultaneously, MaxMat=       0.
 FoFJK:  IHMeth= 1 ICntrl=    6127 DoSepK=F KAlg= 0 I1Cent=   0 FoldK=F
 IRaf=         1 NMat=   1 IRICut=       1 DoRegI=T DoRafI=F ISym2E= 0.
 Defaulting to unpruned grid for atomic number  78.
 Defaulting to unpruned grid for atomic number  78.
 Defaulting to unpruned grid for atomic number  78.
 Defaulting to unpruned grid for atomic number  78.
          There are     3 degrees of freedom in the 1st order CPHF.  IDoFFX=0 NUNeed=     3.
      3 vectors produced by pass  0 Test12= 1.12D-12 3.33D-08 XBig12= 2.81D+01 2.51D+00.
 AX will form     3 AO Fock derivatives at one time.
 InvSVY:  IOpt=1 It=  1 EMax= 0.00D+00
 Solved reduced A of dimension     3 with     3 vectors.
 Calculating GIAO nuclear magnetic shielding tensors.
 SCF GIAO Magnetic shielding tensor (ppm):
      1  Pt   Isotropic =  -612.4675   Anisotropy =  1197.9503
   XX= -1268.5976   YX=  -104.6713   ZX=  -230.3097
   XY=   -94.9842   YY=   179.1151   ZY=    10.0503
   XZ=  -298.9734   YZ=   -19.7032   ZZ=  -747.9199
   Eigenvalues: -1385.1352  -638.4333   186.1661
      2  Cl   Isotropic =   538.0145   Anisotropy =   818.7012
   XX=  1078.7866   YX=    74.0243   ZX=    -4.6368
   XY=    27.9298   YY=   382.0801   ZY=   -70.0733
   XZ=   -51.1208   YZ=  -122.4503   ZZ=   153.1767
   Eigenvalues:   117.9971   412.2310  1083.8153
      3  Cl   Isotropic =   874.4971   Anisotropy =   297.5513
   XX=   774.8082   YX=     8.0727   ZX=    12.1231
   XY=   -14.3602   YY=  1072.5311   ZY=   -13.1368
   XZ=     7.9255   YZ=    -5.5251   ZZ=   776.1521
   Eigenvalues:   765.3785   785.2481  1072.8647
      4  Br   Isotropic =  1488.5696   Anisotropy =  2228.9003
   XX=  2966.9891   YX=    26.6472   ZX=   -55.8816
   XY=   133.9483   YY=  1045.2973   ZY=   152.4332
   XZ=  -165.0769   YZ=   248.7222   ZZ=   453.4224
   Eigenvalues:   385.3834  1105.8222  2974.5031
      5  N    Isotropic =  -175.6178   Anisotropy =   245.6619
   XX=  -146.0271   YX=     3.3792   ZX=  -139.0212
   XY=     2.2201   YY=  -227.5353   ZY=    -9.3508
   XZ=  -135.8937   YZ=    -8.3524   ZZ=  -153.2909
   Eigenvalues:  -287.4868  -227.5233   -11.8431
      6  O    Isotropic =  -389.1763   Anisotropy =   417.5515
   XX=  -371.7714   YX=    52.8633   ZX=  -275.9803
   XY=   -95.2119   YY=  -390.7156   ZY=  -109.0888
   XZ=  -277.8375   YZ=    42.9565   ZZ=  -405.0420
   Eigenvalues:  -671.1270  -385.5933  -110.8087
      7  O    Isotropic =  -384.7141   Anisotropy =   417.9500
   XX=  -372.1455   YX=   -61.5518   ZX=  -284.0791
   XY=    83.4913   YY=  -386.0179   ZY=    74.9404
   XZ=  -270.8645   YZ=   -76.4089   ZZ=  -395.9789
   Eigenvalues:  -661.9704  -386.0912  -106.0807
      8  Cl   Isotropic =   626.8184   Anisotropy =   676.2279
   XX=   213.8278   YX=  -136.2902   ZX=    59.0092
   XY=   -84.2981   YY=   595.5131   ZY=    -8.4333
   XZ=    80.7821   YZ=    66.5722   ZZ=  1071.1143
   Eigenvalues:   177.9427   624.8755  1077.6370
      9  Cl   Isotropic =   622.3140   Anisotropy =   675.7900
   XX=   182.0724   YX=    93.8880   ZX=     6.8017
   XY=    48.3353   YY=   614.7396   ZY=    25.3171
   XZ=    91.2262   YZ=   -38.1338   ZZ=  1070.1299
   Eigenvalues:   167.9783   626.1230  1072.8407
 End of Minotr F.D. properties file   721 does not exist.
 End of Minotr F.D. properties file   722 does not exist.
 End of Minotr F.D. properties file   788 does not exist.
 Leave Link 1002 at Sat Oct 30 02:07:13 2021, MaxMem=  2013265920 cpu:      1135.0
 (Enter /scr/programas/g09/l601.exe)
 Copying SCF densities to generalized density rwf, IOpCl= 0 IROHF=0.

 **********************************************************************

            Population analysis using the SCF density.

 **********************************************************************

 Orbital symmetries:
       Occupied  (A) (A) (A) (A) (A) (A) (A) (A) (A) (A) (A) (A)
                 (A) (A) (A) (A) (A) (A) (A) (A) (A) (A) (A) (A)
                 (A) (A) (A) (A) (A) (A) (A) (A) (A) (A) (A) (A)
                 (A) (A) (A) (A) (A) (A) (A) (A) (A) (A) (A) (A)
                 (A) (A) (A) (A) (A) (A) (A) (A) (A) (A) (A) (A)
                 (A) (A) (A) (A) (A) (A) (A) (A) (A) (A) (A) (A)
                 (A) (A) (A) (A) (A) (A) (A) (A) (A) (A) (A) (A)
                 (A) (A) (A) (A) (A) (A) (A) (A) (A) (A) (A) (A)
                 (A) (A) (A) (A) (A) (A) (A)
       Virtual   (A) (A) (A) (A) (A) (A) (A) (A) (A) (A) (A) (A)
                 (A) (A) (A) (A) (A) (A) (A) (A) (A) (A) (A) (A)
                 (A) (A) (A) (A) (A) (A) (A) (A) (A) (A) (A) (A)
                 (A) (A) (A) (A) (A) (A) (A) (A) (A) (A) (A) (A)
                 (A) (A) (A) (A) (A) (A) (A) (A) (A) (A) (A) (A)
                 (A) (A) (A) (A) (A) (A) (A) (A) (A) (A) (A) (A)
                 (A) (A) (A) (A) (A) (A) (A) (A) (A) (A) (A) (A)
                 (A) (A) (A) (A) (A) (A) (A) (A) (A) (A) (A) (A)
                 (A) (A) (A) (A) (A) (A) (A) (A) (A) (A) (A) (A)
                 (A) (A) (A) (A) (A) (A) (A) (A) (A) (A) (A) (A)
                 (A) (A) (A) (A) (A) (A) (A) (A) (A) (A) (A) (A)
                 (A) (A) (A) (A) (A) (A) (A) (A) (A) (A) (A) (A)
                 (A) (A) (A) (A) (A) (A) (A) (A) (A) (A) (A) (A)
                 (A) (A) (A) (A) (A) (A) (A) (A) (A) (A) (A) (A)
                 (A) (A) (A) (A) (A) (A) (A) (A) (A) (A) (A) (A)
                 (A) (A) (A) (A) (A) (A) (A) (A) (A) (A) (A) (A)
                 (A) (A) (A) (A) (A) (A) (A) (A) (A) (A) (A) (A)
                 (A) (A) (A) (A) (A) (A) (A) (A) (A) (A) (A) (A)
                 (A) (A) (A) (A) (A) (A) (A) (A) (A) (A) (A) (A)
                 (A) (A) (A) (A) (A) (A) (A) (A) (A) (A) (A) (A)
                 (A) (A) (A) (A) (A) (A) (A) (A) (A) (A) (A) (A)
                 (A) (A) (A) (A) (A) (A) (A) (A) (A) (A) (A) (A)
                 (A) (A) (A) (A) (A) (A) (A) (A) (A) (A) (A) (A)
                 (A) (A) (A) (A) (A) (A) (A) (A) (A) (A) (A) (A)
                 (A) (A) (A) (A) (A) (A) (A) (A) (A) (A) (A) (A)
                 (A) (A) (A) (A) (A) (A) (A) (A) (A) (A) (A) (A)
                 (A) (A) (A) (A) (A) (A) (A) (A) (A) (A) (A) (A)
                 (A) (A)
 The electronic state is 1-A.
 Alpha  occ. eigenvalues -- **********-478.58872-427.61069-414.93979-414.93968
 Alpha  occ. eigenvalues -- -414.93967-100.54080-100.54073-100.53934-100.52770
 Alpha  occ. eigenvalues --  -99.99076 -92.14741 -92.14729 -92.14724 -79.10688
 Alpha  occ. eigenvalues --  -79.10669 -79.10521 -79.10509 -79.10503 -61.50697
 Alpha  occ. eigenvalues --  -55.69202 -55.68877 -55.68873 -20.90523 -18.79776
 Alpha  occ. eigenvalues --  -18.79751 -17.46980 -17.46953 -17.46944 -14.19467
 Alpha  occ. eigenvalues --  -11.65483 -11.65431 -11.64890 -11.64848 -11.64842
 Alpha  occ. eigenvalues --   -9.11904  -9.11896  -9.11756  -9.10606  -8.33539
 Alpha  occ. eigenvalues --   -6.95876  -6.95866  -6.95712  -6.95008  -6.95000
 Alpha  occ. eigenvalues --   -6.94997  -6.94989  -6.94869  -6.94858  -6.94472
 Alpha  occ. eigenvalues --   -6.93759  -6.93755  -6.24472  -6.23530  -6.23521
 Alpha  occ. eigenvalues --   -3.20269  -3.20231  -3.20227  -3.19934  -3.19913
 Alpha  occ. eigenvalues --   -3.19890  -3.19500  -2.93155  -2.45386  -2.45150
 Alpha  occ. eigenvalues --   -2.45142  -2.44451  -2.44450  -1.87096  -1.87035
 Alpha  occ. eigenvalues --   -1.86987  -1.14093  -0.97827  -0.70153  -0.68968
 Alpha  occ. eigenvalues --   -0.68879  -0.67992  -0.66163  -0.58685  -0.48860
 Alpha  occ. eigenvalues --   -0.47935  -0.46616  -0.38277  -0.36387  -0.35070
 Alpha  occ. eigenvalues --   -0.34439  -0.33825  -0.31692  -0.29256  -0.29053
 Alpha  occ. eigenvalues --   -0.28778  -0.25592  -0.25063  -0.24344  -0.24068
 Alpha  occ. eigenvalues --   -0.24002  -0.23481  -0.23354  -0.23303  -0.23093
 Alpha  occ. eigenvalues --   -0.22560  -0.22131  -0.22036
 Alpha virt. eigenvalues --   -0.15354  -0.13651  -0.09711  -0.00536   0.00912
 Alpha virt. eigenvalues --    0.01183   0.01705   0.03360   0.03516   0.03552
 Alpha virt. eigenvalues --    0.04255   0.04790   0.06355   0.06372   0.06969
 Alpha virt. eigenvalues --    0.07376   0.07649   0.07974   0.08420   0.10229
 Alpha virt. eigenvalues --    0.10557   0.10791   0.11362   0.11739   0.11891
 Alpha virt. eigenvalues --    0.12023   0.12688   0.13259   0.16971   0.17245
 Alpha virt. eigenvalues --    0.17728   0.17963   0.18704   0.18846   0.19322
 Alpha virt. eigenvalues --    0.20408   0.21135   0.22360   0.23097   0.23591
 Alpha virt. eigenvalues --    0.24506   0.25702   0.26216   0.26853   0.27317
 Alpha virt. eigenvalues --    0.27427   0.28511   0.30050   0.30358   0.32203
 Alpha virt. eigenvalues --    0.32799   0.33445   0.33807   0.34204   0.34529
 Alpha virt. eigenvalues --    0.34993   0.35242   0.35513   0.35535   0.36157
 Alpha virt. eigenvalues --    0.36198   0.36935   0.36970   0.37437   0.37676
 Alpha virt. eigenvalues --    0.39236   0.39804   0.42019   0.44306   0.46757
 Alpha virt. eigenvalues --    0.48194   0.49565   0.50468   0.51162   0.51363
 Alpha virt. eigenvalues --    0.53334   0.54379   0.56218   0.57535   0.58349
 Alpha virt. eigenvalues --    0.59197   0.59737   0.61203   0.62475   0.63897
 Alpha virt. eigenvalues --    0.64613   0.65233   0.66723   0.67426   0.69520
 Alpha virt. eigenvalues --    0.71840   0.72475   0.73469   0.75690   0.75782
 Alpha virt. eigenvalues --    0.76589   0.77169   0.78038   0.80131   0.82579
 Alpha virt. eigenvalues --    0.84795   0.85503   0.87309   0.87929   0.89201
 Alpha virt. eigenvalues --    0.89968   0.91160   0.92322   0.94475   0.95990
 Alpha virt. eigenvalues --    0.97036   0.97750   0.98577   1.01472   1.02080
 Alpha virt. eigenvalues --    1.02766   1.03422   1.04237   1.04322   1.04889
 Alpha virt. eigenvalues --    1.05584   1.05898   1.06315   1.07219   1.08792
 Alpha virt. eigenvalues --    1.09484   1.10476   1.11795   1.11980   1.13904
 Alpha virt. eigenvalues --    1.14561   1.15507   1.16317   1.16984   1.18528
 Alpha virt. eigenvalues --    1.18645   1.19196   1.20165   1.21227   1.21589
 Alpha virt. eigenvalues --    1.23654   1.24293   1.25888   1.27109   1.27219
 Alpha virt. eigenvalues --    1.28782   1.30265   1.31619   1.32433   1.33744
 Alpha virt. eigenvalues --    1.35388   1.36838   1.39473   1.41352   1.41535
 Alpha virt. eigenvalues --    1.46216   1.48157   1.48804   1.52762   1.60995
 Alpha virt. eigenvalues --    1.63404   1.63861   1.71437   1.75008   1.79454
 Alpha virt. eigenvalues --    1.81314   1.84265   1.85405   1.89910   1.91196
 Alpha virt. eigenvalues --    1.91433   1.92237   1.94531   1.95441   1.97420
 Alpha virt. eigenvalues --    1.97696   1.99685   2.13861   2.16332   2.19791
 Alpha virt. eigenvalues --    2.24168   2.36015   2.40019   2.47762   2.48745
 Alpha virt. eigenvalues --    2.52296   2.54274   2.59482   2.62655   2.66483
 Alpha virt. eigenvalues --    2.69700   2.70815   2.71296   2.75655   2.76024
 Alpha virt. eigenvalues --    2.94229   3.03933   3.05407   3.11475   3.11647
 Alpha virt. eigenvalues --    3.12636   3.14542   3.17267   3.19256   3.19831
 Alpha virt. eigenvalues --    3.21381   3.31492   3.34761   3.42131   3.50167
 Alpha virt. eigenvalues --    3.50674   3.64751   3.66927   3.70446   3.72823
 Alpha virt. eigenvalues --    3.75046   3.76557   3.80277   3.83095   3.85006
 Alpha virt. eigenvalues --    3.92019   3.97120   4.00316   4.07095   4.08031
 Alpha virt. eigenvalues --    4.12339   4.29137   4.31329   4.32142   4.32793
 Alpha virt. eigenvalues --    4.33473   4.36391   4.39037   4.39966   4.44517
 Alpha virt. eigenvalues --    4.47091   4.48320   5.40625   5.59238   5.62106
 Alpha virt. eigenvalues --    5.71358   5.93635   5.98931   6.05770   6.07214
 Alpha virt. eigenvalues --    6.29732   6.88625   6.99688   8.41269   8.41529
 Alpha virt. eigenvalues --    8.41761   8.42810   8.43452   8.46820   8.47020
 Alpha virt. eigenvalues --    8.48039   8.56901   8.70814   9.71240   9.71909
 Alpha virt. eigenvalues --    9.75261   9.83273   9.84158   9.84556   9.84763
 Alpha virt. eigenvalues --    9.84928   9.86072   9.86489   9.86736   9.91804
 Alpha virt. eigenvalues --    9.97750  10.05274  10.07468  10.09552  10.13557
 Alpha virt. eigenvalues --   14.14432  16.82514  16.83956  16.90265  16.97010
 Alpha virt. eigenvalues --   20.29800  20.30069  20.39686  20.85944  20.87779
 Alpha virt. eigenvalues --   20.93196  22.98818  25.83034  30.19146  30.28629
 Alpha virt. eigenvalues --   42.79531  42.79912  42.81939  42.95098  42.99056
 Alpha virt. eigenvalues --   65.19045  78.13878  78.15447  78.20584  78.26395
 Alpha virt. eigenvalues --   81.88386  86.00159  86.01751  86.06039 112.74048
 Alpha virt. eigenvalues --  112.74268 112.81034 123.13469 162.95193 163.05327
 Alpha virt. eigenvalues --  257.00834 282.52425 428.62136 428.63458 428.66676
 Alpha virt. eigenvalues --  431.75946 431.77648 431.82994 431.89001 772.70416
 Alpha virt. eigenvalues -- 1043.681452068.321285495.137095634.56548**********
 Alpha virt. eigenvalues -- **********
          Condensed to atoms (all electrons):
               1          2          3          4          5          6
     1  Pt  77.643162   0.076857   0.113203   0.067344  -0.020179   0.066706
     2  Cl   0.076857  17.408735  -0.048120  -0.020135   0.010612  -0.000001
     3  Cl   0.113203  -0.048120  17.452512  -0.046775  -0.011049   0.001278
     4  Br   0.067344  -0.020135  -0.046775  35.345925  -0.004258  -0.022791
     5  N   -0.020179   0.010612  -0.011049  -0.004258   5.850561   0.598449
     6  O    0.066706  -0.000001   0.001278  -0.022791   0.598449   7.541721
     7  O    0.068144  -0.025760   0.001129  -0.000565   0.596458  -0.081238
     8  Cl   0.098351  -0.019650  -0.037074  -0.034948  -0.001651   0.000930
     9  Cl   0.100259  -0.052606  -0.038227  -0.009060   0.003056  -0.025314
               7          8          9
     1  Pt   0.068144   0.098351   0.100259
     2  Cl  -0.025760  -0.019650  -0.052606
     3  Cl   0.001129  -0.037074  -0.038227
     4  Br  -0.000565  -0.034948  -0.009060
     5  N    0.596458  -0.001651   0.003056
     6  O   -0.081238   0.000930  -0.025314
     7  O    7.553972  -0.024057   0.000791
     8  Cl  -0.024057  17.325453  -0.008017
     9  Cl   0.000791  -0.008017  17.333774
 Mulliken charges:
               1
     1  Pt  -0.213848
     2  Cl  -0.329933
     3  Cl  -0.386876
     4  Br  -0.274737
     5  N   -0.022000
     6  O   -0.079740
     7  O   -0.088875
     8  Cl  -0.299336
     9  Cl  -0.304655
 Sum of Mulliken charges =  -2.00000
 Mulliken charges with hydrogens summed into heavy atoms:
               1
     1  Pt  -0.213848
     2  Cl  -0.329933
     3  Cl  -0.386876
     4  Br  -0.274737
     5  N   -0.022000
     6  O   -0.079740
     7  O   -0.088875
     8  Cl  -0.299336
     9  Cl  -0.304655
 Electronic spatial extent (au):  <R**2>=           3068.8060
 Charge=             -2.0000 electrons
 Dipole moment (field-independent basis, Debye):
    X=              2.4191    Y=              2.9582    Z=             -0.1843  Tot=              3.8258
 Quadrupole moment (field-independent basis, Debye-Ang):
   XX=           -146.2600   YY=           -148.4972   ZZ=           -145.6294
   XY=             -0.5284   XZ=             -1.5981   YZ=             -0.0564
 Traceless Quadrupole moment (field-independent basis, Debye-Ang):
   XX=              0.5355   YY=             -1.7016   ZZ=              1.1661
   XY=             -0.5284   XZ=             -1.5981   YZ=             -0.0564
 Octapole moment (field-independent basis, Debye-Ang**2):
  XXX=             54.0763  YYY=             17.6624  ZZZ=             -2.9782  XYY=             17.3474
  XXY=              4.7457  XXZ=              0.1827  XZZ=             16.9731  YZZ=              4.5423
  YYZ=             -1.9326  XYZ=             -5.1529
 Hexadecapole moment (field-independent basis, Debye-Ang**3):
 XXXX=          -1539.3371 YYYY=          -1470.1242 ZZZZ=          -1253.5232 XXXY=             -4.6138
 XXXZ=             -2.1823 YYYX=              4.7810 YYYZ=             -0.6521 ZZZX=             -7.2809
 ZZZY=             -1.2401 XXYY=           -471.6206 XXZZ=           -447.2219 YYZZ=           -423.2475
 XXYZ=              4.1102 YYXZ=            -13.7436 ZZXY=             -0.3057
 N-N= 3.100295822648D+03 E-N=-5.776571272220D+04  KE= 2.141112452215D+04
 Calculating spin-rotation constants.
 Leave Link  601 at Sat Oct 30 02:07:16 2021, MaxMem=  2013265920 cpu:         4.2
 (Enter /scr/programas/g09/l9999.exe)
 1\1\GINC-NQTCM04\SP\RPBEPBE\Gen\Br1Cl4N1O2Pt1(2-)\DIEGO\30-Oct-2021\0\
 \#PBEPBE/gen scf=maxcycle=200 NMR=GIAO Scrf=(solvent=water)\\estrutura
  27\\-2,1\Pt,0,-0.226433,-0.08691,0.013652\Cl,0,-2.621235,-0.221882,0.
 151981\Cl,0,-0.091466,-2.520337,0.057209\Br,0,2.295572,0.051078,-0.132
 859\N,0,-0.354276,1.999182,-0.013868\O,0,0.348446,2.630764,0.751456\O,
 0,-1.132555,2.516989,-0.790955\Cl,0,-0.335684,-0.150627,-2.372061\Cl,0
 ,-0.123995,-0.059217,2.398066\\Version=EM64L-G09RevD.01\State=1-A\HF=-
 21724.0965959\RMSD=4.195e-09\Dipole=0.9517652,1.1638418,-0.0725069\Qua
 drupole=0.3981481,-1.2651327,0.8669847,-0.3928406,-1.1881286,-0.041923
 \PG=C01 [X(Br1Cl4N1O2Pt1)]\\@


 ABALONE: AN EXPRESSION OF DISBELIEF.
 Job cpu time:       0 days  0 hours 54 minutes 30.8 seconds.
 File lengths (MBytes):  RWF=    140 Int=      0 D2E=      0 Chk=     11 Scr=      1
 Normal termination of Gaussian 09 at Sat Oct 30 02:07:16 2021.
