 Entering Gaussian System, Link 0=g09
 Input=estrutura25freq_LANL2DZ_TZVP.com
 Output=estrutura25freq_LANL2DZ_TZVP.log
 Initial command:
 /scr/programas/g09/l1.exe "/scr/diego/Gau-6106.inp" -scrdir="/scr/diego/"
 Entering Link 1 = /scr/programas/g09/l1.exe PID=      6108.
  
 Copyright (c) 1988,1990,1992,1993,1995,1998,2003,2009,2013,
            Gaussian, Inc.  All Rights Reserved.
  
 This is part of the Gaussian(R) 09 program.  It is based on
 the Gaussian(R) 03 system (copyright 2003, Gaussian, Inc.),
 the Gaussian(R) 98 system (copyright 1998, Gaussian, Inc.),
 the Gaussian(R) 94 system (copyright 1995, Gaussian, Inc.),
 the Gaussian 92(TM) system (copyright 1992, Gaussian, Inc.),
 the Gaussian 90(TM) system (copyright 1990, Gaussian, Inc.),
 the Gaussian 88(TM) system (copyright 1988, Gaussian, Inc.),
 the Gaussian 86(TM) system (copyright 1986, Carnegie Mellon
 University), and the Gaussian 82(TM) system (copyright 1983,
 Carnegie Mellon University). Gaussian is a federally registered
 trademark of Gaussian, Inc.
  
 This software contains proprietary and confidential information,
 including trade secrets, belonging to Gaussian, Inc.
  
 This software is provided under written license and may be
 used, copied, transmitted, or stored only in accord with that
 written license.
  
 The following legend is applicable only to US Government
 contracts under FAR:
  
                    RESTRICTED RIGHTS LEGEND
  
 Use, reproduction and disclosure by the US Government is
 subject to restrictions as set forth in subparagraphs (a)
 and (c) of the Commercial Computer Software - Restricted
 Rights clause in FAR 52.227-19.
  
 Gaussian, Inc.
 340 Quinnipiac St., Bldg. 40, Wallingford CT 06492
  
  
 ---------------------------------------------------------------
 Warning -- This program may not be used in any manner that
 competes with the business of Gaussian, Inc. or will provide
 assistance to any competitor of Gaussian, Inc.  The licensee
 of this program is prohibited from giving any competitor of
 Gaussian, Inc. access to this program.  By using this program,
 the user acknowledges that Gaussian, Inc. is engaged in the
 business of creating and licensing software in the field of
 computational chemistry and represents and warrants to the
 licensee that it is not a competitor of Gaussian, Inc. and that
 it will not use this program in any manner prohibited above.
 ---------------------------------------------------------------
  

 Cite this work as:
 Gaussian 09, Revision D.01,
 M. J. Frisch, G. W. Trucks, H. B. Schlegel, G. E. Scuseria, 
 M. A. Robb, J. R. Cheeseman, G. Scalmani, V. Barone, B. Mennucci, 
 G. A. Petersson, H. Nakatsuji, M. Caricato, X. Li, H. P. Hratchian, 
 A. F. Izmaylov, J. Bloino, G. Zheng, J. L. Sonnenberg, M. Hada, 
 M. Ehara, K. Toyota, R. Fukuda, J. Hasegawa, M. Ishida, T. Nakajima, 
 Y. Honda, O. Kitao, H. Nakai, T. Vreven, J. A. Montgomery, Jr., 
 J. E. Peralta, F. Ogliaro, M. Bearpark, J. J. Heyd, E. Brothers, 
 K. N. Kudin, V. N. Staroverov, T. Keith, R. Kobayashi, J. Normand, 
 K. Raghavachari, A. Rendell, J. C. Burant, S. S. Iyengar, J. Tomasi, 
 M. Cossi, N. Rega, J. M. Millam, M. Klene, J. E. Knox, J. B. Cross, 
 V. Bakken, C. Adamo, J. Jaramillo, R. Gomperts, R. E. Stratmann, 
 O. Yazyev, A. J. Austin, R. Cammi, C. Pomelli, J. W. Ochterski, 
 R. L. Martin, K. Morokuma, V. G. Zakrzewski, G. A. Voth, 
 P. Salvador, J. J. Dannenberg, S. Dapprich, A. D. Daniels, 
 O. Farkas, J. B. Foresman, J. V. Ortiz, J. Cioslowski, 
 and D. J. Fox, Gaussian, Inc., Wallingford CT, 2013.
 
 ******************************************
 Gaussian 09:  EM64L-G09RevD.01 24-Apr-2013
                30-Oct-2021 
 ******************************************
 %mem=15Gb
 %nproc=4
 Will use up to    4 processors via shared memory.
 ----------------------------------------------------------
 #PBEPBE/gen scf=maxcycle=200 NMR=GIAO Scrf=(solvent=water)
 ----------------------------------------------------------
 1/38=1/1;
 2/12=2,17=6,18=5,40=1/2;
 3/5=7,11=2,16=1,25=1,30=1,70=2201,72=1,74=1009/1,2,8,3;
 4//1;
 5/5=2,7=200,38=5,53=1/2;
 8/6=1,10=90,11=11/1;
 10/13=100,45=16/2;
 6/7=2,8=2,9=2,10=2,28=1/1;
 99/9=1/99;
 Leave Link    1 at Sat Oct 30 01:31:08 2021, MaxMem=  2013265920 cpu:         0.2
 (Enter /scr/programas/g09/l101.exe)
 ------------
 estrutura 25
 ------------
 Symbolic Z-matrix:
 Charge = -2 Multiplicity = 1
 Pt                    0.08315   0.        0.00017 
 N                    -2.01687   0.       -0.00262 
 O                    -2.59323   1.06929  -0.00262 
 O                    -2.59323  -1.06929  -0.00259 
 Cl                   -0.00032  -0.00012   2.38352 
 Cl                    0.1827    2.39107   0.00023 
 Cl                    0.0055    0.00012  -2.38306 
 Cl                    0.1827   -2.39107  -0.00002 
 Cl                    2.51909  0.         0.00209 
 
 NAtoms=      9 NQM=        9 NQMF=       0 NMMI=      0 NMMIF=      0
                NMic=       0 NMicF=      0.
                    Isotopes and Nuclear Properties:
 (Nuclear quadrupole moments (NQMom) in fm**2, nuclear magnetic moments (NMagM)
  in nuclear magnetons)

  Atom         1           2           3           4           5           6           7           8           9
 IAtWgt=         195          14          16          16          35          35          35          35          35
 AtmWgt= 194.9648000  14.0030740  15.9949146  15.9949146  34.9688527  34.9688527  34.9688527  34.9688527  34.9688527
 NucSpn=           1           2           0           0           3           3           3           3           3
 AtZEff=   0.0000000   0.0000000   0.0000000   0.0000000   0.0000000   0.0000000   0.0000000   0.0000000   0.0000000
 NQMom=    0.0000000   2.0440000   0.0000000   0.0000000  -8.1650000  -8.1650000  -8.1650000  -8.1650000  -8.1650000
 NMagM=    0.6095000   0.4037610   0.0000000   0.0000000   0.8218740   0.8218740   0.8218740   0.8218740   0.8218740
 AtZNuc=  78.0000000   7.0000000   8.0000000   8.0000000  17.0000000  17.0000000  17.0000000  17.0000000  17.0000000
 Leave Link  101 at Sat Oct 30 01:31:08 2021, MaxMem=  2013265920 cpu:         0.4
 (Enter /scr/programas/g09/l202.exe)
                          Input orientation:                          
 ---------------------------------------------------------------------
 Center     Atomic      Atomic             Coordinates (Angstroms)
 Number     Number       Type             X           Y           Z
 ---------------------------------------------------------------------
      1         78           0        0.083147    0.000000    0.000169
      2          7           0       -2.016873    0.000001   -0.002615
      3          8           0       -2.593226    1.069291   -0.002622
      4          8           0       -2.593227   -1.069289   -0.002586
      5         17           0       -0.000322   -0.000121    2.383521
      6         17           0        0.182698    2.391067    0.000230
      7         17           0        0.005504    0.000122   -2.383062
      8         17           0        0.182696   -2.391068   -0.000021
      9         17           0        2.519086   -0.000001    0.002086
 ---------------------------------------------------------------------
                    Distance matrix (angstroms):
                    1          2          3          4          5
     1  Pt   0.000000
     2  N    2.100022   0.000000
     3  O    2.882076   1.214728   0.000000
     4  O    2.882076   1.214728   2.138580   0.000000
     5  Cl   2.384813   3.124120   3.682455   3.682361   0.000000
     6  Cl   2.393138   3.248895   3.074549   4.436196   3.381028
     7  Cl   2.384495   3.123546   3.682800   3.682894   4.766587
     8  Cl   2.393139   3.248895   4.436196   3.074550   3.381035
     9  Cl   2.435940   4.535961   5.222944   5.222944   3.466792
                    6          7          8          9
     6  Cl   0.000000
     7  Cl   3.380547   0.000000
     8  Cl   4.782135   3.380543   0.000000
     9  Cl   3.343040   3.465116   3.343041   0.000000
 Stoichiometry    Cl5NO2Pt(2-)
 Framework group  C1[X(Cl5NO2Pt)]
 Deg. of freedom    21
 Full point group                 C1      NOp   1
 Largest Abelian subgroup         C1      NOp   1
 Largest concise Abelian subgroup C1      NOp   1
                         Standard orientation:                         
 ---------------------------------------------------------------------
 Center     Atomic      Atomic             Coordinates (Angstroms)
 Number     Number       Type             X           Y           Z
 ---------------------------------------------------------------------
      1         78           0       -0.083147    0.000000    0.000169
      2          7           0        2.016873   -0.000001   -0.002615
      3          8           0        2.593226   -1.069291   -0.002622
      4          8           0        2.593227    1.069289   -0.002586
      5         17           0        0.000322    0.000121    2.383521
      6         17           0       -0.182698   -2.391067    0.000230
      7         17           0       -0.005504   -0.000122   -2.383062
      8         17           0       -0.182696    2.391068   -0.000021
      9         17           0       -2.519086    0.000001    0.002086
 ---------------------------------------------------------------------
 Rotational constants (GHZ):      0.6062049      0.5647705      0.5410839
 Leave Link  202 at Sat Oct 30 01:31:08 2021, MaxMem=  2013265920 cpu:         0.0
 (Enter /scr/programas/g09/l301.exe)
 General basis read from cards:  (5D, 7F)
 Centers:       2
 S 6 1.00
     Exponent=  1.2238326969D+04 Coefficients=  5.6000000000D-04
     Exponent=  4.0794423230D+03 Coefficients=  7.7000000000D-04
     Exponent=  1.3598141077D+03 Coefficients=  4.0600000000D-03
     Exponent=  4.5327136922D+02 Coefficients=  1.3910000000D-02
     Exponent=  1.5109045641D+02 Coefficients=  5.2990000000D-02
     Exponent=  5.0363485469D+01 Coefficients=  1.6952000000D-01
 S 1 1.00
     Exponent=  1.6787828490D+01 Coefficients=  1.0000000000D+00
 S 1 1.00
     Exponent=  5.5959428299D+00 Coefficients=  1.0000000000D+00
 S 1 1.00
     Exponent=  1.8653142766D+00 Coefficients=  1.0000000000D+00
 S 1 1.00
     Exponent=  6.2177142554D-01 Coefficients=  1.0000000000D+00
 S 1 1.00
     Exponent=  2.0725714185D-01 Coefficients=  1.0000000000D+00
 P 4 1.00
     Exponent=  5.4142548249D+01 Coefficients=  3.9700000000D-03
     Exponent=  1.6659245615D+01 Coefficients=  1.9540000000D-02
     Exponent=  5.1259217277D+00 Coefficients=  9.9790000000D-02
     Exponent=  1.5772066854D+00 Coefficients=  3.2845000000D-01
 P 1 1.00
     Exponent=  4.8529436475D-01 Coefficients=  1.0000000000D+00
 P 1 1.00
     Exponent=  1.4932134300D-01 Coefficients=  1.0000000000D+00
 D 1 1.00
     Exponent=  4.7700000000D-01 Coefficients=  1.0000000000D+00
 D 1 1.00
     Exponent=  1.5026000000D-01 Coefficients=  1.0000000000D+00
 ****
 Centers:       3      4
 S 6 1.00
     Exponent=  1.6178118231D+04 Coefficients=  6.0000000000D-04
     Exponent=  5.3927060771D+03 Coefficients=  7.8000000000D-04
     Exponent=  1.7975686924D+03 Coefficients=  4.1000000000D-03
     Exponent=  5.9918956413D+02 Coefficients=  1.3880000000D-02
     Exponent=  1.9972985471D+02 Coefficients=  5.2770000000D-02
     Exponent=  6.6576618236D+01 Coefficients=  1.6924000000D-01
 S 1 1.00
     Exponent=  2.2192206079D+01 Coefficients=  1.0000000000D+00
 S 1 1.00
     Exponent=  7.3974020263D+00 Coefficients=  1.0000000000D+00
 S 1 1.00
     Exponent=  2.4658006754D+00 Coefficients=  1.0000000000D+00
 S 1 1.00
     Exponent=  8.2193355847D-01 Coefficients=  1.0000000000D+00
 S 1 1.00
     Exponent=  2.7397785282D-01 Coefficients=  1.0000000000D+00
 P 4 1.00
     Exponent=  7.3854398670D+01 Coefficients=  4.0200000000D-03
     Exponent=  2.2724430360D+01 Coefficients=  2.0130000000D-02
     Exponent=  6.9921324184D+00 Coefficients=  1.0470000000D-01
     Exponent=  2.1514253595D+00 Coefficients=  3.3605000000D-01
 P 1 1.00
     Exponent=  6.6197703370D-01 Coefficients=  1.0000000000D+00
 P 1 1.00
     Exponent=  2.0368524114D-01 Coefficients=  1.0000000000D+00
 D 1 1.00
     Exponent=  9.2880000000D-01 Coefficients=  1.0000000000D+00
 D 1 1.00
     Exponent=  2.2975000000D-01 Coefficients=  1.0000000000D+00
 ****
 Centers:       5      6      7      8      9
 S 7 1.00
     Exponent=  7.7142817164D+04 Coefficients=  1.0600000000D-03
     Exponent=  2.8051933514D+04 Coefficients=  6.4000000000D-04
     Exponent=  1.0200703096D+04 Coefficients=  3.9600000000D-03
     Exponent=  3.7093465804D+03 Coefficients=  9.8300000000D-03
     Exponent=  1.3488533020D+03 Coefficients=  3.2690000000D-02
     Exponent=  4.9049210981D+02 Coefficients=  9.9520000000D-02
     Exponent=  1.7836076720D+02 Coefficients=  2.6555000000D-01
 S 1 1.00
     Exponent=  6.4858460801D+01 Coefficients=  1.0000000000D+00
 S 1 1.00
     Exponent=  2.3584894837D+01 Coefficients=  1.0000000000D+00
 S 1 1.00
     Exponent=  8.5763253951D+00 Coefficients=  1.0000000000D+00
 S 1 1.00
     Exponent=  3.1186637801D+00 Coefficients=  1.0000000000D+00
 S 1 1.00
     Exponent=  1.1340595564D+00 Coefficients=  1.0000000000D+00
 S 1 1.00
     Exponent=  4.1238529323D-01 Coefficients=  1.0000000000D+00
 S 1 1.00
     Exponent=  1.4995828845D-01 Coefficients=  1.0000000000D+00
 S 1 1.00
     Exponent=  5.4530286708D-02 Coefficients=  1.0000000000D+00
 P 5 1.00
     Exponent=  6.9498536057D+02 Coefficients=  2.0000000000D-03
     Exponent=  2.3166178686D+02 Coefficients=  8.9500000000D-03
     Exponent=  7.7220595619D+01 Coefficients=  5.1130000000D-02
     Exponent=  2.5740198540D+01 Coefficients=  2.1011000000D-01
     Exponent=  8.5800661799D+00 Coefficients=  4.9738000000D-01
 P 1 1.00
     Exponent=  2.8600220600D+00 Coefficients=  1.0000000000D+00
 P 1 1.00
     Exponent=  9.5334068665D-01 Coefficients=  1.0000000000D+00
 P 1 1.00
     Exponent=  3.1778022888D-01 Coefficients=  1.0000000000D+00
 P 1 1.00
     Exponent=  1.0592674296D-01 Coefficients=  1.0000000000D+00
 P 1 1.00
     Exponent=  3.5308914320D-02 Coefficients=  1.0000000000D+00
 D 1 1.00
     Exponent=  5.5696000000D-01 Coefficients=  1.0000000000D+00
 D 1 1.00
     Exponent=  1.5619100000D-01 Coefficients=  1.0000000000D+00
 ****
 Centers:       1
 S 9 1.00
     Exponent=  2.1644816090D+06 Coefficients=  1.2320000000D-02
     Exponent=  1.0822408045D+06 Coefficients=  1.2970000000D-02
     Exponent=  5.4112040224D+05 Coefficients=  2.6370000000D-02
     Exponent=  2.7056020112D+05 Coefficients=  9.0400000000D-03
     Exponent=  1.3528010056D+05 Coefficients=  3.4980000000D-02
     Exponent=  6.7640050280D+04 Coefficients=  1.2220000000D-02
     Exponent=  3.3820025140D+04 Coefficients=  6.0520000000D-02
     Exponent=  1.6910012570D+04 Coefficients=  6.4930000000D-02
     Exponent=  8.4550062850D+03 Coefficients=  1.3819000000D-01
 S 1 1.00
     Exponent=  4.2275031425D+03 Coefficients=  1.0000000000D+00
 S 1 1.00
     Exponent=  2.1137515713D+03 Coefficients=  1.0000000000D+00
 S 1 1.00
     Exponent=  1.0568757856D+03 Coefficients=  1.0000000000D+00
 S 1 1.00
     Exponent=  5.2843789281D+02 Coefficients=  1.0000000000D+00
 S 1 1.00
     Exponent=  2.6421894641D+02 Coefficients=  1.0000000000D+00
 S 1 1.00
     Exponent=  1.3210947320D+02 Coefficients=  1.0000000000D+00
 S 1 1.00
     Exponent=  6.6054736602D+01 Coefficients=  1.0000000000D+00
 S 1 1.00
     Exponent=  3.3027368301D+01 Coefficients=  1.0000000000D+00
 S 1 1.00
     Exponent=  1.6513684150D+01 Coefficients=  1.0000000000D+00
 S 1 1.00
     Exponent=  8.2568420752D+00 Coefficients=  1.0000000000D+00
 S 1 1.00
     Exponent=  4.1284210376D+00 Coefficients=  1.0000000000D+00
 S 1 1.00
     Exponent=  2.0642105188D+00 Coefficients=  1.0000000000D+00
 S 1 1.00
     Exponent=  1.0321052594D+00 Coefficients=  1.0000000000D+00
 S 1 1.00
     Exponent=  5.1605262970D-01 Coefficients=  1.0000000000D+00
 S 1 1.00
     Exponent=  2.5802631485D-01 Coefficients=  1.0000000000D+00
 S 1 1.00
     Exponent=  1.2901315743D-01 Coefficients=  1.0000000000D+00
 S 1 1.00
     Exponent=  6.4506578713D-02 Coefficients=  1.0000000000D+00
 P 7 1.00
     Exponent=  3.2357915258D+04 Coefficients=  5.0200000000D-03
     Exponent=  1.4381295670D+04 Coefficients=  2.0200000000D-03
     Exponent=  6.3916869645D+03 Coefficients=  1.8070000000D-02
     Exponent=  2.8407497620D+03 Coefficients=  3.6620000000D-02
     Exponent=  1.2625554498D+03 Coefficients=  1.1172000000D-01
     Exponent=  5.6113575545D+02 Coefficients=  2.5586000000D-01
     Exponent=  2.4939366909D+02 Coefficients=  4.2608000000D-01
 P 1 1.00
     Exponent=  1.1084163071D+02 Coefficients=  1.0000000000D+00
 P 1 1.00
     Exponent=  4.9262946981D+01 Coefficients=  1.0000000000D+00
 P 1 1.00
     Exponent=  2.1894643103D+01 Coefficients=  1.0000000000D+00
 P 1 1.00
     Exponent=  9.7309524900D+00 Coefficients=  1.0000000000D+00
 P 1 1.00
     Exponent=  4.3248677733D+00 Coefficients=  1.0000000000D+00
 P 1 1.00
     Exponent=  1.9221634548D+00 Coefficients=  1.0000000000D+00
 P 1 1.00
     Exponent=  8.5429486881D-01 Coefficients=  1.0000000000D+00
 P 1 1.00
     Exponent=  3.7968660836D-01 Coefficients=  1.0000000000D+00
 P 1 1.00
     Exponent=  1.6874960372D-01 Coefficients=  1.0000000000D+00
 P 1 1.00
     Exponent=  7.4999823874D-02 Coefficients=  1.0000000000D+00
 P 1 1.00
     Exponent=  3.3333255055D-02 Coefficients=  1.0000000000D+00
 D 5 1.00
     Exponent=  1.9119003508D+03 Coefficients=  4.3300000000D-03
     Exponent=  7.6476014031D+02 Coefficients=  1.7780000000D-02
     Exponent=  3.0590405613D+02 Coefficients=  8.9710000000D-02
     Exponent=  1.2236162245D+02 Coefficients=  3.1123000000D-01
     Exponent=  4.8944648980D+01 Coefficients=  5.3206000000D-01
 D 1 1.00
     Exponent=  1.9577859592D+01 Coefficients=  1.0000000000D+00
 D 1 1.00
     Exponent=  7.8311438368D+00 Coefficients=  1.0000000000D+00
 D 1 1.00
     Exponent=  3.1324575347D+00 Coefficients=  1.0000000000D+00
 D 1 1.00
     Exponent=  1.2529830139D+00 Coefficients=  1.0000000000D+00
 D 1 1.00
     Exponent=  5.0119320556D-01 Coefficients=  1.0000000000D+00
 D 1 1.00
     Exponent=  2.0047728222D-01 Coefficients=  1.0000000000D+00
 D 1 1.00
     Exponent=  8.0190912889D-02 Coefficients=  1.0000000000D+00
 D 1 1.00
     Exponent=  3.2076365156D-02 Coefficients=  1.0000000000D+00
 F 4 1.00
     Exponent=  8.2289680979D+01 Coefficients=  6.1870000000D-02
     Exponent=  2.9923520356D+01 Coefficients=  2.4823000000D-01
     Exponent=  1.0881280130D+01 Coefficients=  4.9956000000D-01
     Exponent=  3.9568291380D+00 Coefficients=  4.0380000000D-01
 F 1 1.00
     Exponent=  1.4388469593D+00 Coefficients=  1.0000000000D+00
 F 1 1.00
     Exponent=  5.2321707610D-01 Coefficients=  1.0000000000D+00
 G 1 1.00
     Exponent=  2.6700000000D+00 Coefficients=  1.0000000000D+00
 G 1 1.00
     Exponent=  9.0960000000D-01 Coefficients=  1.0000000000D+00
 ****
 Ernie: Thresh=  0.10000D-02 Tol=  0.10000D-05 Strict=F.
 There are   444 symmetry adapted cartesian basis functions of A   symmetry.
 There are   398 symmetry adapted basis functions of A   symmetry.
   398 basis functions,   656 primitive gaussians,   444 cartesian basis functions
    94 alpha electrons       94 beta electrons
       nuclear repulsion energy      2597.0380515870 Hartrees.
 IExCor= 1009 DFT=T Ex=PBE Corr=PBE ExCW=0 ScaHFX=  0.000000
 ScaDFX=  1.000000  1.000000  1.000000  1.000000 ScalE2=  1.000000  1.000000
 IRadAn=      0 IRanWt=     -1 IRanGd=            0 ICorTp=0 IEmpDi=  4
 NAtoms=    9 NActive=    9 NUniq=    9 SFac= 1.00D+00 NAtFMM=   60 NAOKFM=F Big=F
 Integral buffers will be    131072 words long.
 Raffenetti 2 integral format.
 Two-electron integral symmetry is turned on.
 ------------------------------------------------------------------------------
 Polarizable Continuum Model (PCM)
 =================================
 Model                : PCM (using non-symmetric T matrix).
 Atomic radii         : UFF (Universal Force Field).
 Polarization charges : Total charges.
 Charge compensation  : None.
 Solution method      : On-the-fly selection.
 Cavity type          : Scaled VdW (van der Waals Surface) (Alpha=1.100).
 Cavity algorithm     : GePol (No added spheres)
                        Default sphere list used, NSphG=    9.
                        Lebedev-Laikov grids with approx.  5.0 points / Ang**2.
                        Smoothing algorithm: Karplus/York (Gamma=1.0000).
                        Polarization charges: spherical gaussians, with
                                              point-specific exponents (IZeta= 3).
                        Self-potential: point-specific (ISelfS= 7).
                        Self-field    : sphere-specific E.n sum rule (ISelfD= 2).
 Solvent              : Water, Eps=  78.355300 Eps(inf)=   1.777849
 ------------------------------------------------------------------------------
 Spheres list:
 ISph  on   Nord     Re0    Alpha      Xe            Ye            Ze
    1  Pt      1    1.3770  1.100     -0.083147      0.000000      0.000169
    2   N      2    1.8300  1.100      2.016873     -0.000001     -0.002615
    3   O      3    1.7500  1.100      2.593226     -1.069291     -0.002622
    4   O      4    1.7500  1.100      2.593227      1.069289     -0.002586
    5  Cl      5    1.9735  1.100      0.000322      0.000121      2.383521
    6  Cl      6    1.9735  1.100     -0.182698     -2.391067      0.000230
    7  Cl      7    1.9735  1.100     -0.005504     -0.000122     -2.383062
    8  Cl      8    1.9735  1.100     -0.182696      2.391068     -0.000021
    9  Cl      9    1.9735  1.100     -2.519086      0.000001      0.002086
 ------------------------------------------------------------------------------
 GePol: Number of generator spheres                  =       9
 GePol: Total number of spheres                      =       9
 GePol: Number of exposed spheres                    =       8 ( 88.89%)
 GePol: Number of points                             =    1352
 GePol: Average weight of points                     =       0.17
 GePol: Minimum weight of points                     =   0.14D-11
 GePol: Maximum weight of points                     =    0.21616
 GePol: Number of points with low weight             =      29
 GePol: Fraction of low-weight points (<1% of avg)   =       2.14%
 GePol: Cavity surface area                          =    230.811 Ang**2
 GePol: Cavity volume                                =    238.405 Ang**3
 Leave Link  301 at Sat Oct 30 01:31:08 2021, MaxMem=  2013265920 cpu:         0.6
 (Enter /scr/programas/g09/l302.exe)
 NPDir=0 NMtPBC=     1 NCelOv=     1 NCel=       1 NClECP=     1 NCelD=      1
         NCelK=      1 NCelE2=     1 NClLst=     1 CellRange=     0.0.
 One-electron integrals computed using PRISM.
 NBasis=   398 RedAO= T EigKep=  8.62D-05  NBF=   398
 NBsUse=   398 1.00D-06 EigRej= -1.00D+00 NBFU=   398
 Precomputing XC quadrature grid using
 IXCGrd= 4 IRadAn=           0 IRanWt=          -1 IRanGd=           0 AccXCQ= 0.00D+00.
 Defaulting to unpruned grid for atomic number  78.
 Generated NRdTot=       0 NPtTot=           0 NUsed=           0 NTot=          32
 NSgBfM=   410   410   410   410   410 MxSgAt=     9 MxSgA2=     9.
 Leave Link  302 at Sat Oct 30 01:31:09 2021, MaxMem=  2013265920 cpu:         2.1
 (Enter /scr/programas/g09/l308.exe)
 Leave Link  308 at Sat Oct 30 01:31:09 2021, MaxMem=  2013265920 cpu:         0.4
 (Enter /scr/programas/g09/l303.exe)
 DipDrv:  MaxL=1.
 Leave Link  303 at Sat Oct 30 01:31:09 2021, MaxMem=  2013265920 cpu:         0.3
 (Enter /scr/programas/g09/l401.exe)
 ExpMin= 3.21D-02 ExpMax= 2.16D+06 ExpMxC= 2.16D+06 IAcc=4 IRadAn=    199590 AccDes= 0.00D+00
 Harris functional with IExCor= 1009 and IRadAn=  199590 diagonalized for initial guess.
 HarFok:  IExCor= 1009 AccDes= 0.00D+00 IRadAn=    199590 IDoV= 1 UseB2=F ITyADJ=14
 ICtDFT=  3500011 ScaDFX=  1.000000  1.000000  1.000000  1.000000
 FoFCou: FMM=F IPFlag=           0 FMFlag=      100000 FMFlg1=           0
         NFxFlg=           0 DoJE=T BraDBF=F KetDBF=T FulRan=T
         wScrn=  0.000000 ICntrl=     500 IOpCl=  0 I1Cent=   200000004 NGrid=           0
         NMat0=    1 NMatS0=      1 NMatT0=    0 NMatD0=    1 NMtDS0=    0 NMtDT0=    0
 Petite list used in FoFCou.
 Harris En= -19628.9198753377    
 JPrj=0 DoOrth=F DoCkMO=F.
 Leave Link  401 at Sat Oct 30 01:31:22 2021, MaxMem=  2013265920 cpu:        50.8
 (Enter /scr/programas/g09/l502.exe)
 Closed shell SCF:
 Using DIIS extrapolation, IDIIS=  1040.
 Integral symmetry usage will be decided dynamically.
 IVT=      639840 IEndB=      639840 NGot=  2013265920 MDV=  2012864061
 LenX=  2012864061 LenY=  2012666481
 Requested convergence on RMS density matrix=1.00D-08 within 200 cycles.
 Requested convergence on MAX density matrix=1.00D-06.
 Requested convergence on             energy=1.00D-06.
 No special actions if energy rises.
 Fock matrices will be formed incrementally for  20 cycles.

 Cycle   1  Pass 1  IDiag  1:
 FoFJK:  IHMeth= 1 ICntrl=     500 DoSepK=F KAlg= 0 I1Cent=   0 FoldK=F
 IRaf= 820000000 NMat=   1 IRICut=       1 DoRegI=T DoRafI=F ISym2E= 0.
 FoFCou: FMM=F IPFlag=           0 FMFlag=      100000 FMFlg1=           0
         NFxFlg=           0 DoJE=T BraDBF=F KetDBF=F FulRan=T
         wScrn=  0.000000 ICntrl=     500 IOpCl=  0 I1Cent=           0 NGrid=           0
         NMat0=    1 NMatS0=      1 NMatT0=    0 NMatD0=    1 NMtDS0=    0 NMtDT0=    0
 Symmetry not used in FoFCou.
 Defaulting to unpruned grid for atomic number  78.
 Defaulting to unpruned grid for atomic number  78.
 Defaulting to unpruned grid for atomic number  78.
 Defaulting to unpruned grid for atomic number  78.
 Inv3:  Mode=1 IEnd=     5483712.
 Iteration    1 A*A^-1 deviation from unit magnitude is 7.11D-15 for    702.
 Iteration    1 A*A^-1 deviation from orthogonality  is 4.15D-15 for    371    123.
 Iteration    1 A^-1*A deviation from unit magnitude is 5.33D-15 for    406.
 Iteration    1 A^-1*A deviation from orthogonality  is 4.27D-15 for    376    364.
 E= -19610.8873683988    
 DIIS: error= 8.37D-01 at cycle   1 NSaved=   1.
 NSaved= 1 IEnMin= 1 EnMin= -19610.8873683988     IErMin= 1 ErrMin= 8.37D-01
 ErrMax= 8.37D-01  0.00D+00 EMaxC= 1.00D-01 BMatC= 3.15D+02 BMatP= 3.15D+02
 IDIUse=3 WtCom= 0.00D+00 WtEn= 1.00D+00
 Coeff-Com:  0.100D+01
 Coeff-En:   0.100D+01
 Coeff:      0.100D+01
 Gap=     0.696 Goal=   None    Shift=    0.000
 GapD=    0.696 DampG=2.000 DampE=0.125 DampFc=0.2500 IDamp=-1.
 Damping current iteration by 2.50D-01
 RMSDP=1.62D-02 MaxDP=1.57D+00              OVMax= 8.44D-01

 Cycle   2  Pass 1  IDiag  1:
 RMSU=  3.99D-03    CP:  1.03D+00
 E= -19612.6865620203     Delta-E=       -1.799193621522 Rises=F Damp=T
 DIIS: error= 6.01D-01 at cycle   2 NSaved=   2.
 NSaved= 2 IEnMin= 2 EnMin= -19612.6865620203     IErMin= 2 ErrMin= 6.01D-01
 ErrMax= 6.01D-01  0.00D+00 EMaxC= 1.00D-01 BMatC= 1.51D+02 BMatP= 3.15D+02
 IDIUse=3 WtCom= 0.00D+00 WtEn= 1.00D+00
 Coeff-Com: -0.192D+01 0.292D+01
 Coeff-En:   0.758D-01 0.924D+00
 Coeff:      0.758D-01 0.924D+00
 Gap=     0.071 Goal=   None    Shift=    0.000
 RMSDP=5.14D-03 MaxDP=2.25D-01 DE=-1.80D+00 OVMax= 9.98D-01

 Cycle   3  Pass 1  IDiag  1:
 RMSU=  5.05D-03    CP:  1.03D+00  7.56D-01
 E= -19611.6822973747     Delta-E=        1.004264645660 Rises=F Damp=F
 DIIS: error= 1.69D-01 at cycle   3 NSaved=   3.
 NSaved= 3 IEnMin= 2 EnMin= -19612.6865620203     IErMin= 3 ErrMin= 1.69D-01
 ErrMax= 1.69D-01  0.00D+00 EMaxC= 1.00D-01 BMatC= 1.36D+01 BMatP= 1.51D+02
 IDIUse=3 WtCom= 0.00D+00 WtEn= 1.00D+00
 EnCoef did     5 forward-backward iterations
 Coeff-Com:  0.531D+00-0.557D+00 0.103D+01
 Coeff-En:   0.386D+00 0.113D+00 0.501D+00
 Coeff:      0.386D+00 0.113D+00 0.501D+00
 Gap=    -0.080 Goal=   None    Shift=    0.000
 RMSDP=2.56D-02 MaxDP=4.04D+00 DE= 1.00D+00 OVMax= 9.87D-01

 Cycle   4  Pass 1  IDiag  1:
 RMSU=  2.53D-02    CP:  1.02D+00  9.16D-01  2.01D-01
 E= -19607.1471918473     Delta-E=        4.535105527393 Rises=F Damp=F
 DIIS: error= 1.23D-01 at cycle   4 NSaved=   4.
 NSaved= 4 IEnMin= 2 EnMin= -19612.6865620203     IErMin= 4 ErrMin= 1.23D-01
 ErrMax= 1.23D-01  0.00D+00 EMaxC= 1.00D-01 BMatC= 7.05D+00 BMatP= 1.36D+01
 IDIUse=3 WtCom= 0.00D+00 WtEn= 1.00D+00
 EnCoef did   100 forward-backward iterations
 Coeff-Com:  0.697D+00-0.855D+00 0.576D+00 0.581D+00
 Coeff-En:   0.328D+00 0.778D-02 0.437D+00 0.227D+00
 Coeff:      0.328D+00 0.778D-02 0.437D+00 0.227D+00
 Gap=     0.020 Goal=   None    Shift=    0.000
 RMSDP=2.52D-02 MaxDP=4.05D+00 DE= 4.54D+00 OVMax= 9.91D-01

 Cycle   5  Pass 1  IDiag  1:
 RMSU=  2.13D-03    CP:  1.02D+00  2.57D-01  1.67D-01  1.09D-02
 E= -19615.2396604685     Delta-E=       -8.092468621253 Rises=F Damp=F
 DIIS: error= 6.85D-02 at cycle   5 NSaved=   5.
 NSaved= 5 IEnMin= 5 EnMin= -19615.2396604685     IErMin= 5 ErrMin= 6.85D-02
 ErrMax= 6.85D-02  0.00D+00 EMaxC= 1.00D-01 BMatC= 1.26D+00 BMatP= 7.05D+00
 IDIUse=3 WtCom= 3.15D-01 WtEn= 6.85D-01
 EnCoef did     1 forward-backward iterations
 Coeff-Com: -0.181D+00 0.293D+00 0.701D-01 0.311D-01 0.787D+00
 Coeff-En:   0.000D+00 0.000D+00 0.215D+00 0.553D-01 0.730D+00
 Coeff:     -0.571D-01 0.923D-01 0.169D+00 0.477D-01 0.748D+00
 Gap=     0.121 Goal=   None    Shift=    0.000
 RMSDP=4.20D-03 MaxDP=2.35D-01 DE=-8.09D+00 OVMax= 7.34D-01

 Cycle   6  Pass 1  IDiag  1:
 RMSU=  3.21D-03    CP:  1.02D+00  8.10D-01  3.93D-01  1.50D-02  5.13D-01
 E= -19613.6533629392     Delta-E=        1.586297529360 Rises=F Damp=F
 DIIS: error= 6.16D-02 at cycle   6 NSaved=   6.
 NSaved= 6 IEnMin= 5 EnMin= -19615.2396604685     IErMin= 6 ErrMin= 6.16D-02
 ErrMax= 6.16D-02  0.00D+00 EMaxC= 1.00D-01 BMatC= 2.51D+00 BMatP= 1.26D+00
 IDIUse=2 WtCom= 0.00D+00 WtEn= 1.00D+00
 EnCoef did     6 forward-backward iterations
 Coeff-En:   0.000D+00 0.000D+00 0.646D-01 0.000D+00 0.649D+00 0.286D+00
 Coeff:      0.000D+00 0.000D+00 0.646D-01 0.000D+00 0.649D+00 0.286D+00
 Gap=    -0.103 Goal=   None    Shift=    0.000
 RMSDP=3.31D-03 MaxDP=1.20D-01 DE= 1.59D+00 OVMax= 6.89D-01

 Cycle   7  Pass 1  IDiag  1:
 RMSU=  1.99D-03    CP:  1.02D+00  5.18D-01  3.85D-01  3.14D-03  6.19D-01
                    CP:  2.71D-01
 E= -19615.6658219157     Delta-E=       -2.012458976536 Rises=F Damp=F
 DIIS: error= 3.83D-02 at cycle   7 NSaved=   7.
 NSaved= 7 IEnMin= 7 EnMin= -19615.6658219157     IErMin= 7 ErrMin= 3.83D-02
 ErrMax= 3.83D-02  0.00D+00 EMaxC= 1.00D-01 BMatC= 5.08D-01 BMatP= 1.26D+00
 IDIUse=3 WtCom= 6.17D-01 WtEn= 3.83D-01
 EnCoef did     3 forward-backward iterations
 Coeff-Com: -0.924D-01 0.130D+00-0.787D-01 0.434D-02 0.412D+00 0.754D-01
 Coeff-Com:  0.549D+00
 Coeff-En:   0.000D+00 0.000D+00 0.000D+00 0.000D+00 0.402D+00 0.777D-01
 Coeff-En:   0.520D+00
 Coeff:     -0.570D-01 0.804D-01-0.486D-01 0.267D-02 0.408D+00 0.763D-01
 Coeff:      0.538D+00
 Gap=     0.121 Goal=   None    Shift=    0.000
 RMSDP=1.76D-03 MaxDP=1.32D-01 DE=-2.01D+00 OVMax= 3.78D-01

 Cycle   8  Pass 1  IDiag  1:
 RMSU=  1.03D-03    CP:  1.02D+00  4.31D-01  2.78D-01  8.36D-03  8.68D-01
                    CP:  2.39D-01  4.29D-01
 E= -19616.0747711647     Delta-E=       -0.408949249028 Rises=F Damp=F
 DIIS: error= 7.13D-03 at cycle   8 NSaved=   8.
 NSaved= 8 IEnMin= 8 EnMin= -19616.0747711647     IErMin= 8 ErrMin= 7.13D-03
 ErrMax= 7.13D-03  0.00D+00 EMaxC= 1.00D-01 BMatC= 3.13D-02 BMatP= 5.08D-01
 IDIUse=3 WtCom= 9.29D-01 WtEn= 7.13D-02
 Coeff-Com: -0.355D-01 0.497D-01-0.322D-01-0.136D-02 0.176D+00 0.622D-02
 Coeff-Com:  0.288D+00 0.549D+00
 Coeff-En:   0.000D+00 0.000D+00 0.000D+00 0.000D+00 0.000D+00 0.000D+00
 Coeff-En:   0.265D-01 0.973D+00
 Coeff:     -0.330D-01 0.462D-01-0.299D-01-0.127D-02 0.163D+00 0.578D-02
 Coeff:      0.269D+00 0.580D+00
 Gap=     0.075 Goal=   None    Shift=    0.000
 RMSDP=7.46D-04 MaxDP=6.40D-02 DE=-4.09D-01 OVMax= 1.84D-01

 Cycle   9  Pass 1  IDiag  1:
 RMSU=  4.03D-04    CP:  1.02D+00  4.29D-01  2.86D-01  6.46D-03  8.37D-01
                    CP:  2.10D-01  5.86D-01  4.87D-01
 E= -19616.0929927465     Delta-E=       -0.018221581806 Rises=F Damp=F
 DIIS: error= 4.90D-03 at cycle   9 NSaved=   9.
 NSaved= 9 IEnMin= 9 EnMin= -19616.0929927465     IErMin= 9 ErrMin= 4.90D-03
 ErrMax= 4.90D-03  0.00D+00 EMaxC= 1.00D-01 BMatC= 1.25D-02 BMatP= 3.13D-02
 IDIUse=3 WtCom= 9.51D-01 WtEn= 4.90D-02
 Coeff-Com: -0.633D-02 0.876D-02-0.597D-02 0.146D-02 0.294D-01-0.143D-02
 Coeff-Com:  0.338D-01 0.378D+00 0.562D+00
 Coeff-En:   0.000D+00 0.000D+00 0.000D+00 0.000D+00 0.000D+00 0.000D+00
 Coeff-En:   0.000D+00 0.344D+00 0.656D+00
 Coeff:     -0.602D-02 0.833D-02-0.568D-02 0.139D-02 0.279D-01-0.136D-02
 Coeff:      0.321D-01 0.376D+00 0.567D+00
 Gap=     0.076 Goal=   None    Shift=    0.000
 RMSDP=3.78D-04 MaxDP=3.33D-02 DE=-1.82D-02 OVMax= 9.51D-02

 Cycle  10  Pass 1  IDiag  1:
 RMSU=  1.56D-04    CP:  1.02D+00  4.32D-01  2.79D-01  7.64D-03  8.66D-01
                    CP:  2.26D-01  5.00D-01  7.03D-01  5.68D-01
 E= -19616.1039195324     Delta-E=       -0.010926785832 Rises=F Damp=F
 DIIS: error= 2.02D-03 at cycle  10 NSaved=  10.
 NSaved=10 IEnMin=10 EnMin= -19616.1039195324     IErMin=10 ErrMin= 2.02D-03
 ErrMax= 2.02D-03  0.00D+00 EMaxC= 1.00D-01 BMatC= 3.01D-03 BMatP= 1.25D-02
 IDIUse=3 WtCom= 9.80D-01 WtEn= 2.02D-02
 Coeff-Com: -0.820D-03 0.107D-02-0.122D-02-0.135D-02 0.924D-02 0.194D-02
 Coeff-Com: -0.668D-02 0.232D+00 0.415D+00 0.351D+00
 Coeff-En:   0.000D+00 0.000D+00 0.000D+00 0.000D+00 0.000D+00 0.000D+00
 Coeff-En:   0.000D+00 0.000D+00 0.147D+00 0.853D+00
 Coeff:     -0.803D-03 0.105D-02-0.119D-02-0.132D-02 0.905D-02 0.190D-02
 Coeff:     -0.654D-02 0.227D+00 0.409D+00 0.362D+00
 Gap=     0.067 Goal=   None    Shift=    0.000
 RMSDP=1.14D-04 MaxDP=7.21D-03 DE=-1.09D-02 OVMax= 2.58D-02

 Cycle  11  Pass 1  IDiag  1:
 RMSU=  5.25D-05    CP:  1.02D+00  4.28D-01  2.78D-01  7.35D-03  8.61D-01
                    CP:  2.20D-01  5.13D-01  6.73D-01  6.35D-01  4.72D-01
 E= -19616.1063338040     Delta-E=       -0.002414271603 Rises=F Damp=F
 DIIS: error= 6.09D-04 at cycle  11 NSaved=  11.
 NSaved=11 IEnMin=11 EnMin= -19616.1063338040     IErMin=11 ErrMin= 6.09D-04
 ErrMax= 6.09D-04  0.00D+00 EMaxC= 1.00D-01 BMatC= 1.98D-04 BMatP= 3.01D-03
 IDIUse=3 WtCom= 9.94D-01 WtEn= 6.09D-03
 Coeff-Com:  0.681D-03-0.891D-03 0.591D-03-0.668D-04 0.175D-02-0.189D-03
 Coeff-Com: -0.586D-02 0.890D-01 0.173D+00 0.230D+00 0.512D+00
 Coeff-En:   0.000D+00 0.000D+00 0.000D+00 0.000D+00 0.000D+00 0.000D+00
 Coeff-En:   0.000D+00 0.000D+00 0.000D+00 0.367D-01 0.963D+00
 Coeff:      0.677D-03-0.886D-03 0.588D-03-0.664D-04 0.174D-02-0.188D-03
 Coeff:     -0.582D-02 0.885D-01 0.172D+00 0.228D+00 0.515D+00
 Gap=     0.066 Goal=   None    Shift=    0.000
 RMSDP=2.46D-05 MaxDP=1.72D-03 DE=-2.41D-03 OVMax= 4.29D-03

 Cycle  12  Pass 1  IDiag  1:
 RMSU=  1.93D-05    CP:  1.02D+00  4.28D-01  2.78D-01  7.41D-03  8.62D-01
                    CP:  2.20D-01  5.09D-01  6.80D-01  6.39D-01  4.83D-01
                    CP:  7.97D-01
 E= -19616.1064474680     Delta-E=       -0.000113664068 Rises=F Damp=F
 DIIS: error= 1.70D-04 at cycle  12 NSaved=  12.
 NSaved=12 IEnMin=12 EnMin= -19616.1064474680     IErMin=12 ErrMin= 1.70D-04
 ErrMax= 1.70D-04  0.00D+00 EMaxC= 1.00D-01 BMatC= 1.75D-05 BMatP= 1.98D-04
 IDIUse=3 WtCom= 9.98D-01 WtEn= 1.70D-03
 Coeff-Com:  0.233D-03-0.304D-03 0.283D-03-0.320D-04 0.324D-03-0.241D-03
 Coeff-Com: -0.965D-03 0.243D-01 0.508D-01 0.892D-01 0.301D+00 0.535D+00
 Coeff-En:   0.000D+00 0.000D+00 0.000D+00 0.000D+00 0.000D+00 0.000D+00
 Coeff-En:   0.000D+00 0.000D+00 0.000D+00 0.000D+00 0.869D-01 0.913D+00
 Coeff:      0.233D-03-0.304D-03 0.283D-03-0.319D-04 0.324D-03-0.241D-03
 Coeff:     -0.964D-03 0.243D-01 0.507D-01 0.890D-01 0.301D+00 0.536D+00
 Gap=     0.067 Goal=   None    Shift=    0.000
 RMSDP=1.05D-05 MaxDP=5.83D-04 DE=-1.14D-04 OVMax= 1.32D-03

 Cycle  13  Pass 1  IDiag  1:
 RMSU=  4.86D-06    CP:  1.02D+00  4.28D-01  2.78D-01  7.39D-03  8.62D-01
                    CP:  2.20D-01  5.10D-01  6.78D-01  6.35D-01  5.07D-01
                    CP:  7.74D-01  6.04D-01
 E= -19616.1064629503     Delta-E=       -0.000015482292 Rises=F Damp=F
 DIIS: error= 4.03D-05 at cycle  13 NSaved=  13.
 NSaved=13 IEnMin=13 EnMin= -19616.1064629503     IErMin=13 ErrMin= 4.03D-05
 ErrMax= 4.03D-05  0.00D+00 EMaxC= 1.00D-01 BMatC= 1.05D-06 BMatP= 1.75D-05
 IDIUse=1 WtCom= 1.00D+00 WtEn= 0.00D+00
 Coeff-Com:  0.750D-04-0.103D-03 0.633D-04-0.394D-04 0.135D-04-0.100D-03
 Coeff-Com:  0.507D-03 0.244D-02 0.767D-02 0.178D-01 0.916D-01 0.240D+00
 Coeff-Com:  0.641D+00
 Coeff:      0.750D-04-0.103D-03 0.633D-04-0.394D-04 0.135D-04-0.100D-03
 Coeff:      0.507D-03 0.244D-02 0.767D-02 0.178D-01 0.916D-01 0.240D+00
 Coeff:      0.641D+00
 Gap=     0.066 Goal=   None    Shift=    0.000
 RMSDP=2.95D-06 MaxDP=1.61D-04 DE=-1.55D-05 OVMax= 4.88D-04

 Cycle  14  Pass 1  IDiag  1:
 RMSU=  1.77D-06    CP:  1.02D+00  4.28D-01  2.78D-01  7.38D-03  8.61D-01
                    CP:  2.20D-01  5.11D-01  6.78D-01  6.35D-01  5.00D-01
                    CP:  7.80D-01  6.34D-01  8.02D-01
 E= -19616.1064638833     Delta-E=       -0.000000932963 Rises=F Damp=F
 DIIS: error= 1.22D-05 at cycle  14 NSaved=  14.
 NSaved=14 IEnMin=14 EnMin= -19616.1064638833     IErMin=14 ErrMin= 1.22D-05
 ErrMax= 1.22D-05  0.00D+00 EMaxC= 1.00D-01 BMatC= 9.74D-08 BMatP= 1.05D-06
 IDIUse=1 WtCom= 1.00D+00 WtEn= 0.00D+00
 Coeff-Com:  0.207D-04-0.268D-04 0.180D-04-0.786D-05 0.247D-04-0.363D-04
 Coeff-Com:  0.149D-03-0.324D-03 0.133D-02 0.794D-03 0.140D-01 0.461D-01
 Coeff-Com:  0.257D+00 0.680D+00
 Coeff:      0.207D-04-0.268D-04 0.180D-04-0.786D-05 0.247D-04-0.363D-04
 Coeff:      0.149D-03-0.324D-03 0.133D-02 0.794D-03 0.140D-01 0.461D-01
 Coeff:      0.257D+00 0.680D+00
 Gap=     0.067 Goal=   None    Shift=    0.000
 RMSDP=9.83D-07 MaxDP=4.29D-05 DE=-9.33D-07 OVMax= 1.92D-04

 Cycle  15  Pass 1  IDiag  1:
 RMSU=  6.15D-07    CP:  1.02D+00  4.28D-01  2.78D-01  7.38D-03  8.61D-01
                    CP:  2.20D-01  5.11D-01  6.77D-01  6.36D-01  5.00D-01
                    CP:  7.79D-01  6.27D-01  8.60D-01  8.21D-01
 E= -19616.1064639110     Delta-E=       -0.000000027674 Rises=F Damp=F
 DIIS: error= 3.08D-05 at cycle  15 NSaved=  15.
 NSaved=15 IEnMin=15 EnMin= -19616.1064639110     IErMin=14 ErrMin= 1.22D-05
 ErrMax= 3.08D-05  0.00D+00 EMaxC= 1.00D-01 BMatC= 9.90D-08 BMatP= 9.74D-08
 IDIUse=1 WtCom= 1.00D+00 WtEn= 0.00D+00
 Coeff-Com:  0.107D-04-0.133D-04 0.965D-05-0.329D-05 0.195D-04-0.210D-04
 Coeff-Com:  0.770D-04-0.450D-03 0.528D-03-0.877D-03 0.360D-02 0.173D-01
 Coeff-Com:  0.159D+00 0.580D+00 0.241D+00
 Coeff:      0.107D-04-0.133D-04 0.965D-05-0.329D-05 0.195D-04-0.210D-04
 Coeff:      0.770D-04-0.450D-03 0.528D-03-0.877D-03 0.360D-02 0.173D-01
 Coeff:      0.159D+00 0.580D+00 0.241D+00
 Gap=     0.067 Goal=   None    Shift=    0.000
 RMSDP=4.98D-07 MaxDP=3.36D-05 DE=-2.77D-08 OVMax= 1.60D-04

 Cycle  16  Pass 1  IDiag  1:
 RMSU=  2.25D-07    CP:  1.02D+00  4.28D-01  2.78D-01  7.38D-03  8.61D-01
                    CP:  2.20D-01  5.11D-01  6.77D-01  6.36D-01  5.00D-01
                    CP:  7.79D-01  6.27D-01  8.65D-01  8.42D-01  2.86D-01
 E= -19616.1064639843     Delta-E=       -0.000000073363 Rises=F Damp=F
 DIIS: error= 4.99D-06 at cycle  16 NSaved=  16.
 NSaved=16 IEnMin=16 EnMin= -19616.1064639843     IErMin=16 ErrMin= 4.99D-06
 ErrMax= 4.99D-06  0.00D+00 EMaxC= 1.00D-01 BMatC= 3.71D-09 BMatP= 9.74D-08
 IDIUse=1 WtCom= 1.00D+00 WtEn= 0.00D+00
 Coeff-Com:  0.120D-05-0.151D-05 0.705D-06-0.912D-06 0.184D-05-0.161D-05
 Coeff-Com:  0.139D-04-0.113D-03 0.688D-04-0.535D-03-0.925D-03 0.192D-03
 Coeff-Com:  0.297D-01 0.180D+00 0.166D+00 0.625D+00
 Coeff:      0.120D-05-0.151D-05 0.705D-06-0.912D-06 0.184D-05-0.161D-05
 Coeff:      0.139D-04-0.113D-03 0.688D-04-0.535D-03-0.925D-03 0.192D-03
 Coeff:      0.297D-01 0.180D+00 0.166D+00 0.625D+00
 Gap=     0.067 Goal=   None    Shift=    0.000
 RMSDP=1.23D-07 MaxDP=5.36D-06 DE=-7.34D-08 OVMax= 2.30D-05

 Cycle  17  Pass 1  IDiag  1:
 RMSU=  6.67D-08    CP:  1.02D+00  4.28D-01  2.78D-01  7.38D-03  8.61D-01
                    CP:  2.20D-01  5.11D-01  6.77D-01  6.36D-01  5.00D-01
                    CP:  7.79D-01  6.28D-01  8.64D-01  8.49D-01  3.53D-01
                    CP:  6.75D-01
 E= -19616.1064639871     Delta-E=       -0.000000002750 Rises=F Damp=F
 DIIS: error= 6.59D-07 at cycle  17 NSaved=  17.
 NSaved=17 IEnMin=17 EnMin= -19616.1064639871     IErMin=17 ErrMin= 6.59D-07
 ErrMax= 6.59D-07  0.00D+00 EMaxC= 1.00D-01 BMatC= 1.80D-10 BMatP= 3.71D-09
 IDIUse=1 WtCom= 1.00D+00 WtEn= 0.00D+00
 Coeff-Com:  0.604D-06-0.792D-06 0.106D-06-0.162D-06 0.340D-06-0.359D-06
 Coeff-Com:  0.206D-05-0.241D-04 0.215D-04-0.195D-03-0.579D-03-0.593D-03
 Coeff-Com:  0.595D-02 0.624D-01 0.754D-01 0.334D+00 0.523D+00
 Coeff:      0.604D-06-0.792D-06 0.106D-06-0.162D-06 0.340D-06-0.359D-06
 Coeff:      0.206D-05-0.241D-04 0.215D-04-0.195D-03-0.579D-03-0.593D-03
 Coeff:      0.595D-02 0.624D-01 0.754D-01 0.334D+00 0.523D+00
 Gap=     0.067 Goal=   None    Shift=    0.000
 RMSDP=4.01D-08 MaxDP=2.51D-06 DE=-2.75D-09 OVMax= 6.30D-06

 Cycle  18  Pass 1  IDiag  1:
 RMSU=  2.13D-08    CP:  1.02D+00  4.28D-01  2.78D-01  7.38D-03  8.61D-01
                    CP:  2.20D-01  5.11D-01  6.77D-01  6.36D-01  5.00D-01
                    CP:  7.79D-01  6.28D-01  8.63D-01  8.50D-01  3.60D-01
                    CP:  7.17D-01  5.62D-01
 E= -19616.1064639873     Delta-E=       -0.000000000218 Rises=F Damp=F
 DIIS: error= 2.26D-07 at cycle  18 NSaved=  18.
 NSaved=18 IEnMin=18 EnMin= -19616.1064639873     IErMin=18 ErrMin= 2.26D-07
 ErrMax= 2.26D-07  0.00D+00 EMaxC= 1.00D-01 BMatC= 1.84D-11 BMatP= 1.80D-10
 IDIUse=1 WtCom= 1.00D+00 WtEn= 0.00D+00
 Coeff-Com:  0.343D-06-0.454D-06 0.314D-07-0.500D-07 0.117D-06-0.164D-06
 Coeff-Com:  0.691D-06-0.102D-04 0.676D-05-0.100D-03-0.331D-03-0.446D-03
 Coeff-Com:  0.183D-02 0.290D-01 0.382D-01 0.176D+00 0.324D+00 0.432D+00
 Coeff:      0.343D-06-0.454D-06 0.314D-07-0.500D-07 0.117D-06-0.164D-06
 Coeff:      0.691D-06-0.102D-04 0.676D-05-0.100D-03-0.331D-03-0.446D-03
 Coeff:      0.183D-02 0.290D-01 0.382D-01 0.176D+00 0.324D+00 0.432D+00
 Gap=     0.067 Goal=   None    Shift=    0.000
 RMSDP=1.56D-08 MaxDP=1.37D-06 DE=-2.18D-10 OVMax= 3.56D-06

 Cycle  19  Pass 1  IDiag  1:
 RMSU=  8.98D-09    CP:  1.02D+00  4.28D-01  2.78D-01  7.38D-03  8.61D-01
                    CP:  2.20D-01  5.11D-01  6.77D-01  6.36D-01  5.00D-01
                    CP:  7.79D-01  6.28D-01  8.63D-01  8.50D-01  3.60D-01
                    CP:  7.18D-01  6.25D-01  4.43D-01
 E= -19616.1064639870     Delta-E=        0.000000000258 Rises=F Damp=F
 DIIS: error= 8.66D-08 at cycle  19 NSaved=  19.
 NSaved=19 IEnMin=18 EnMin= -19616.1064639873     IErMin=19 ErrMin= 8.66D-08
 ErrMax= 8.66D-08  0.00D+00 EMaxC= 1.00D-01 BMatC= 3.10D-12 BMatP= 1.84D-11
 IDIUse=1 WtCom= 1.00D+00 WtEn= 0.00D+00
 Coeff-Com:  0.108D-06-0.144D-06-0.796D-08-0.115D-07 0.193D-07-0.316D-07
 Coeff-Com:  0.191D-06-0.324D-05-0.188D-05-0.331D-04-0.119D-03-0.225D-03
 Coeff-Com: -0.967D-04 0.649D-02 0.102D-01 0.501D-01 0.108D+00 0.297D+00
 Coeff-Com:  0.529D+00
 Coeff:      0.108D-06-0.144D-06-0.796D-08-0.115D-07 0.193D-07-0.316D-07
 Coeff:      0.191D-06-0.324D-05-0.188D-05-0.331D-04-0.119D-03-0.225D-03
 Coeff:     -0.967D-04 0.649D-02 0.102D-01 0.501D-01 0.108D+00 0.297D+00
 Coeff:      0.529D+00
 Gap=     0.067 Goal=   None    Shift=    0.000
 RMSDP=4.99D-09 MaxDP=3.94D-07 DE= 2.58D-10 OVMax= 1.02D-06

 Error on total polarization charges =  0.03327
 SCF Done:  E(RPBE-PBE) =  -19616.1064640     A.U. after   19 cycles
            NFock= 19  Conv=0.50D-08     -V/T= 2.0157
 KE= 1.931329622092D+04 PE=-5.171627228785D+04 EE= 1.018983155136D+04
 Leave Link  502 at Sat Oct 30 01:37:43 2021, MaxMem=  2013265920 cpu:      1517.9
 (Enter /scr/programas/g09/l801.exe)
 Range of M.O.s used for correlation:     1   398
 NBasis=   398 NAE=    94 NBE=    94 NFC=     0 NFV=     0
 NROrb=    398 NOA=    94 NOB=    94 NVA=   304 NVB=   304

 **** Warning!!: The largest alpha MO coefficient is  0.26387996D+02


 **** Warning!!: The smallest alpha delta epsilon is  0.66502360D-01

 Leave Link  801 at Sat Oct 30 01:37:43 2021, MaxMem=  2013265920 cpu:         0.1
 (Enter /scr/programas/g09/l1002.exe)
 Minotr:  Closed shell wavefunction.
 NEqPCM:  Using equilibrium solvation (IEInf=0, Eps=  78.3553, EpsInf=   1.7778)
          Direct CPHF calculation.
          Differentiating once with respect to magnetic field using GIAOs.
          Electric field/nuclear overlap derivatives assumed to be zero.
          Requested convergence is 1.0D-08 RMS, and 1.0D-07 maximum.
          Secondary convergence is 1.0D-12 RMS, and 1.0D-12 maximum.
          NewPWx=T KeepS1=F KeepF1=F KeepIn=T MapXYZ=F SortEE=F KeepMc=T.
          MDV=    2013265446 using IRadAn=       2.
 Defaulting to unpruned grid for atomic number  78.
 Generate precomputed XC quadrature information.
          Solving linear equations simultaneously, MaxMat=       0.
 FoFJK:  IHMeth= 1 ICntrl=    6127 DoSepK=F KAlg= 0 I1Cent=   0 FoldK=F
 IRaf=         1 NMat=   1 IRICut=       1 DoRegI=T DoRafI=F ISym2E= 0.
 Defaulting to unpruned grid for atomic number  78.
 Defaulting to unpruned grid for atomic number  78.
 Defaulting to unpruned grid for atomic number  78.
 Defaulting to unpruned grid for atomic number  78.
          There are     3 degrees of freedom in the 1st order CPHF.  IDoFFX=0 NUNeed=     3.
      3 vectors produced by pass  0 Test12= 9.53D-13 3.33D-08 XBig12= 3.05D+01 2.59D+00.
 AX will form     3 AO Fock derivatives at one time.
 InvSVY:  IOpt=1 It=  1 EMax= 0.00D+00
 Solved reduced A of dimension     3 with     3 vectors.
 Calculating GIAO nuclear magnetic shielding tensors.
 SCF GIAO Magnetic shielding tensor (ppm):
      1  Pt   Isotropic =  -835.8912   Anisotropy =   810.2721
   XX=  -295.7125   YX=     0.0004   ZX=    -1.7873
   XY=     0.0000   YY= -1374.1976   ZY=    -0.0377
   XZ=    -0.5918   YZ=     0.0122   ZZ=  -837.7637
   Eigenvalues: -1374.1976  -837.7663  -295.7098
      2  N    Isotropic =  -173.8777   Anisotropy =   245.9513
   XX=  -232.4070   YX=     0.0001   ZX=     0.1435
   XY=     0.0000   YY=  -279.3158   ZY=    -0.0043
   XZ=     0.0923   YZ=    -0.0061   ZZ=    -9.9102
   Eigenvalues:  -279.3158  -232.4070    -9.9101
      3  O    Isotropic =  -373.9924   Anisotropy =   418.4501
   XX=  -380.3739   YX=   132.8798   ZX=     0.1782
   XY=   -83.6116   YY=  -646.5773   ZY=    -0.0428
   XZ=     0.2184   YZ=    -0.3110   ZZ=   -95.0258
   Eigenvalues:  -648.8378  -378.1136   -95.0256
      4  O    Isotropic =  -373.9928   Anisotropy =   418.4494
   XX=  -380.3741   YX=  -132.8796   ZX=     0.1755
   XY=    83.6120   YY=  -646.5776   ZY=     0.0241
   XZ=     0.2211   YZ=     0.2897   ZZ=   -95.0266
   Eigenvalues:  -648.8380  -378.1138   -95.0265
      5  Cl   Isotropic =   705.1444   Anisotropy =   583.7802
   XX=   568.0763   YX=     0.0084   ZX=    -4.6992
   XY=     0.0115   YY=   453.2227   ZY=     0.0325
   XZ=    25.0619   YZ=     0.0351   ZZ=  1094.1342
   Eigenvalues:   453.2227   567.8794  1094.3312
      6  Cl   Isotropic =   474.8738   Anisotropy =   890.8882
   XX=   496.1560   YX=   -43.4076   ZX=    -0.6072
   XY=    76.8172   YY=  1068.3120   ZY=    -0.1162
   XZ=    -0.6806   YZ=     0.0210   ZZ=  -139.8465
   Eigenvalues:  -139.8471   495.6693  1068.7993
      7  Cl   Isotropic =   704.7707   Anisotropy =   584.1938
   XX=   567.4792   YX=    -0.0083   ZX=     6.0852
   XY=    -0.0115   YY=   452.7492   ZY=     0.0324
   XZ=   -23.8329   YZ=     0.0357   ZZ=  1094.0838
   Eigenvalues:   452.7492   567.3297  1094.2332
      8  Cl   Isotropic =   474.8735   Anisotropy =   890.8888
   XX=   496.1555   YX=    43.4078   ZX=    -0.5948
   XY=   -76.8168   YY=  1068.3121   ZY=     0.0154
   XZ=    -0.6284   YZ=    -0.1497   ZZ=  -139.8470
   Eigenvalues:  -139.8476   495.6688  1068.7994
      9  Cl   Isotropic =   888.4951   Anisotropy =   274.6884
   XX=  1071.6203   YX=    -0.0003   ZX=     0.5259
   XY=    -0.0004   YY=   627.0557   ZY=     0.0143
   XZ=    -0.1403   YZ=     0.0241   ZZ=   966.8092
   Eigenvalues:   627.0557   966.8089  1071.6206
 End of Minotr F.D. properties file   721 does not exist.
 End of Minotr F.D. properties file   722 does not exist.
 End of Minotr F.D. properties file   788 does not exist.
 Leave Link 1002 at Sat Oct 30 01:41:34 2021, MaxMem=  2013265920 cpu:       916.9
 (Enter /scr/programas/g09/l601.exe)
 Copying SCF densities to generalized density rwf, IOpCl= 0 IROHF=0.

 **********************************************************************

            Population analysis using the SCF density.

 **********************************************************************

 Orbital symmetries:
       Occupied  (A) (A) (A) (A) (A) (A) (A) (A) (A) (A) (A) (A)
                 (A) (A) (A) (A) (A) (A) (A) (A) (A) (A) (A) (A)
                 (A) (A) (A) (A) (A) (A) (A) (A) (A) (A) (A) (A)
                 (A) (A) (A) (A) (A) (A) (A) (A) (A) (A) (A) (A)
                 (A) (A) (A) (A) (A) (A) (A) (A) (A) (A) (A) (A)
                 (A) (A) (A) (A) (A) (A) (A) (A) (A) (A) (A) (A)
                 (A) (A) (A) (A) (A) (A) (A) (A) (A) (A) (A) (A)
                 (A) (A) (A) (A) (A) (A) (A) (A) (A) (A)
       Virtual   (A) (A) (A) (A) (A) (A) (A) (A) (A) (A) (A) (A)
                 (A) (A) (A) (A) (A) (A) (A) (A) (A) (A) (A) (A)
                 (A) (A) (A) (A) (A) (A) (A) (A) (A) (A) (A) (A)
                 (A) (A) (A) (A) (A) (A) (A) (A) (A) (A) (A) (A)
                 (A) (A) (A) (A) (A) (A) (A) (A) (A) (A) (A) (A)
                 (A) (A) (A) (A) (A) (A) (A) (A) (A) (A) (A) (A)
                 (A) (A) (A) (A) (A) (A) (A) (A) (A) (A) (A) (A)
                 (A) (A) (A) (A) (A) (A) (A) (A) (A) (A) (A) (A)
                 (A) (A) (A) (A) (A) (A) (A) (A) (A) (A) (A) (A)
                 (A) (A) (A) (A) (A) (A) (A) (A) (A) (A) (A) (A)
                 (A) (A) (A) (A) (A) (A) (A) (A) (A) (A) (A) (A)
                 (A) (A) (A) (A) (A) (A) (A) (A) (A) (A) (A) (A)
                 (A) (A) (A) (A) (A) (A) (A) (A) (A) (A) (A) (A)
                 (A) (A) (A) (A) (A) (A) (A) (A) (A) (A) (A) (A)
                 (A) (A) (A) (A) (A) (A) (A) (A) (A) (A) (A) (A)
                 (A) (A) (A) (A) (A) (A) (A) (A) (A) (A) (A) (A)
                 (A) (A) (A) (A) (A) (A) (A) (A) (A) (A) (A) (A)
                 (A) (A) (A) (A) (A) (A) (A) (A) (A) (A) (A) (A)
                 (A) (A) (A) (A) (A) (A) (A) (A) (A) (A) (A) (A)
                 (A) (A) (A) (A) (A) (A) (A) (A) (A) (A) (A) (A)
                 (A) (A) (A) (A) (A) (A) (A) (A) (A) (A) (A) (A)
                 (A) (A) (A) (A) (A) (A) (A) (A) (A) (A) (A) (A)
                 (A) (A) (A) (A) (A) (A) (A) (A) (A) (A) (A) (A)
                 (A) (A) (A) (A) (A) (A) (A) (A) (A) (A) (A) (A)
                 (A) (A) (A) (A) (A) (A) (A) (A) (A) (A) (A) (A)
                 (A) (A) (A) (A)
 The electronic state is 1-A.
 Alpha  occ. eigenvalues -- **********-427.61132-414.94042-414.94038-414.94022
 Alpha  occ. eigenvalues -- -100.54349-100.54347-100.53937-100.53937-100.52800
 Alpha  occ. eigenvalues --  -99.99140 -92.14809 -92.14799 -92.14778 -79.10764
 Alpha  occ. eigenvalues --  -79.10727 -79.10579 -79.10571 -79.10570 -20.90589
 Alpha  occ. eigenvalues --  -18.79857 -18.79857 -17.47052 -17.47036 -17.46989
 Alpha  occ. eigenvalues --  -14.19610 -11.65581 -11.65485 -11.64926 -11.64924
 Alpha  occ. eigenvalues --  -11.64912  -9.12168  -9.12165  -9.11761  -9.11761
 Alpha  occ. eigenvalues --   -9.10636  -6.96130  -6.96127  -6.95740  -6.95740
 Alpha  occ. eigenvalues --   -6.95279  -6.95277  -6.95263  -6.95261  -6.94866
 Alpha  occ. eigenvalues --   -6.94866  -6.94847  -6.94847  -6.94506  -6.93795
 Alpha  occ. eigenvalues --   -6.93773  -3.20349  -3.20327  -3.20275  -3.20005
 Alpha  occ. eigenvalues --   -3.19977  -3.19948  -3.19556  -2.93224  -1.87157
 Alpha  occ. eigenvalues --   -1.87129  -1.87035  -1.14286  -0.97973  -0.70515
 Alpha  occ. eigenvalues --   -0.69233  -0.69142  -0.68740  -0.67973  -0.58688
 Alpha  occ. eigenvalues --   -0.48910  -0.48058  -0.46693  -0.38599  -0.36687
 Alpha  occ. eigenvalues --   -0.35361  -0.34601  -0.34073  -0.31855  -0.29401
 Alpha  occ. eigenvalues --   -0.29305  -0.28892  -0.26166  -0.25258  -0.24619
 Alpha  occ. eigenvalues --   -0.24516  -0.24509  -0.23564  -0.23358  -0.23319
 Alpha  occ. eigenvalues --   -0.23108  -0.22992  -0.22605  -0.21927
 Alpha virt. eigenvalues --   -0.15277  -0.13670  -0.09830  -0.00389   0.01265
 Alpha virt. eigenvalues --    0.01376   0.02106   0.03566   0.04161   0.04448
 Alpha virt. eigenvalues --    0.04711   0.04901   0.06931   0.07043   0.07210
 Alpha virt. eigenvalues --    0.07576   0.07922   0.08059   0.08881   0.10877
 Alpha virt. eigenvalues --    0.10999   0.11093   0.11264   0.12046   0.12463
 Alpha virt. eigenvalues --    0.12589   0.13103   0.14716   0.17067   0.17706
 Alpha virt. eigenvalues --    0.17972   0.18217   0.18837   0.19311   0.21430
 Alpha virt. eigenvalues --    0.21930   0.22744   0.24069   0.24139   0.25352
 Alpha virt. eigenvalues --    0.26139   0.26308   0.26434   0.27743   0.29402
 Alpha virt. eigenvalues --    0.29439   0.30547   0.31532   0.32790   0.32969
 Alpha virt. eigenvalues --    0.33212   0.33906   0.34228   0.34566   0.34722
 Alpha virt. eigenvalues --    0.34730   0.35240   0.35247   0.35674   0.35734
 Alpha virt. eigenvalues --    0.36010   0.36543   0.36868   0.37157   0.37604
 Alpha virt. eigenvalues --    0.37651   0.38734   0.41220   0.43442   0.45813
 Alpha virt. eigenvalues --    0.48564   0.48904   0.50185   0.50744   0.51354
 Alpha virt. eigenvalues --    0.52443   0.52947   0.53463   0.55624   0.55800
 Alpha virt. eigenvalues --    0.57148   0.57652   0.58733   0.59483   0.60224
 Alpha virt. eigenvalues --    0.60304   0.62410   0.64599   0.65457   0.67981
 Alpha virt. eigenvalues --    0.68354   0.68828   0.69219   0.74648   0.75966
 Alpha virt. eigenvalues --    0.76153   0.78388   0.78504   0.79182   0.79721
 Alpha virt. eigenvalues --    0.80096   0.80803   0.82954   0.84455   0.88674
 Alpha virt. eigenvalues --    0.89613   0.91675   0.91838   0.92378   0.94794
 Alpha virt. eigenvalues --    0.96673   0.96994   0.97542   1.00202   1.01972
 Alpha virt. eigenvalues --    1.02181   1.03944   1.04113   1.04239   1.04436
 Alpha virt. eigenvalues --    1.04540   1.05106   1.05189   1.06227   1.08933
 Alpha virt. eigenvalues --    1.09383   1.09621   1.10266   1.12618   1.12646
 Alpha virt. eigenvalues --    1.12794   1.13139   1.15669   1.15937   1.17504
 Alpha virt. eigenvalues --    1.18300   1.18848   1.19123   1.19288   1.20798
 Alpha virt. eigenvalues --    1.21687   1.23723   1.26246   1.28003   1.29713
 Alpha virt. eigenvalues --    1.31262   1.31598   1.34152   1.36418   1.36499
 Alpha virt. eigenvalues --    1.38311   1.40193   1.43483   1.46289   1.49178
 Alpha virt. eigenvalues --    1.51078   1.60947   1.71616   1.76668   1.77769
 Alpha virt. eigenvalues --    1.79450   1.84092   1.86805   1.89676   1.90824
 Alpha virt. eigenvalues --    1.90965   1.91528   1.91837   1.94023   1.95246
 Alpha virt. eigenvalues --    1.95560   1.95675   1.99119   1.99609   2.11866
 Alpha virt. eigenvalues --    2.15117   2.17643   2.24246   2.25022   2.37759
 Alpha virt. eigenvalues --    2.41095   2.43831   2.47626   2.54216   2.54849
 Alpha virt. eigenvalues --    2.57408   2.65044   2.67024   2.70408   2.70800
 Alpha virt. eigenvalues --    2.72518   2.75032   2.77157   2.95960   3.04969
 Alpha virt. eigenvalues --    3.09601   3.11759   3.11803   3.12137   3.12972
 Alpha virt. eigenvalues --    3.16861   3.20166   3.20858   3.33435   3.34491
 Alpha virt. eigenvalues --    3.45467   3.50646   3.52670   3.55498   3.64051
 Alpha virt. eigenvalues --    3.66358   3.73050   3.74273   3.77967   3.80229
 Alpha virt. eigenvalues --    3.80544   3.80616   3.85716   3.92537   4.03470
 Alpha virt. eigenvalues --    4.08731   4.12380   4.32943   4.45530   4.46778
 Alpha virt. eigenvalues --    5.43394   5.57903   5.61975   5.70396   6.99010
 Alpha virt. eigenvalues --    7.00246   8.40903   8.41280   8.41393   8.41866
 Alpha virt. eigenvalues --    8.43060   8.46836   8.47304   8.48211   8.55922
 Alpha virt. eigenvalues --    8.67628   9.70537   9.72123   9.73770   9.83553
 Alpha virt. eigenvalues --    9.83657   9.83861   9.84251   9.84292   9.84985
 Alpha virt. eigenvalues --    9.85485   9.85684   9.86468   9.86844   9.92653
 Alpha virt. eigenvalues --    9.96151  10.05856  10.07017  10.09334  10.12788
 Alpha virt. eigenvalues --   10.17497  16.83241  16.85618  16.85622  16.96221
 Alpha virt. eigenvalues --   17.04736  20.84604  20.87684  20.92588  23.02541
 Alpha virt. eigenvalues --   25.80321  30.27258  30.29378  42.79052  42.80189
 Alpha virt. eigenvalues --   42.81463  42.98048  42.99831  78.14641  78.16600
 Alpha virt. eigenvalues --   78.16854  78.25699  78.32909  81.85976  85.99279
 Alpha virt. eigenvalues --   86.01640  86.05497 123.17421 163.03588 163.06122
 Alpha virt. eigenvalues --  256.98618 428.61506 428.63238 428.66215 431.76812
 Alpha virt. eigenvalues --  431.78792 431.79275 431.88269 431.95710 772.68387
 Alpha virt. eigenvalues -- 2068.302615495.11986********************
          Condensed to atoms (all electrons):
               1          2          3          4          5          6
     1  Pt  77.419606  -0.013128   0.055348   0.055348   0.134480   0.122318
     2  N   -0.013128   5.823359   0.597240   0.597240   0.012387  -0.012764
     3  O    0.055348   0.597240   7.557770  -0.072513  -0.008790  -0.024115
     4  O    0.055348   0.597240  -0.072513   7.557771  -0.008793   0.001833
     5  Cl   0.134480   0.012387  -0.008790  -0.008793  17.297797  -0.023115
     6  Cl   0.122318  -0.012764  -0.024115   0.001833  -0.023115  17.309545
     7  Cl   0.134220   0.012397  -0.008802  -0.008800  -0.012562  -0.023035
     8  Cl   0.122322  -0.012765   0.001833  -0.024114  -0.023111  -0.012066
     9  Cl   0.124023  -0.010123   0.000921   0.000921  -0.040496  -0.032312
               7          8          9
     1  Pt   0.134220   0.122322   0.124023
     2  N    0.012397  -0.012765  -0.010123
     3  O   -0.008802   0.001833   0.000921
     4  O   -0.008800  -0.024114   0.000921
     5  Cl  -0.012562  -0.023111  -0.040496
     6  Cl  -0.023035  -0.012066  -0.032312
     7  Cl  17.297610  -0.023039  -0.040478
     8  Cl  -0.023039  17.309542  -0.032312
     9  Cl  -0.040478  -0.032312  17.415803
 Mulliken charges:
               1
     1  Pt  -0.154537
     2  N    0.006157
     3  O   -0.098892
     4  O   -0.098892
     5  Cl  -0.327798
     6  Cl  -0.306290
     7  Cl  -0.327510
     8  Cl  -0.306291
     9  Cl  -0.385947
 Sum of Mulliken charges =  -2.00000
 Mulliken charges with hydrogens summed into heavy atoms:
               1
     1  Pt  -0.154537
     2  N    0.006157
     3  O   -0.098892
     4  O   -0.098892
     5  Cl  -0.327798
     6  Cl  -0.306290
     7  Cl  -0.327510
     8  Cl  -0.306291
     9  Cl  -0.385947
 Electronic spatial extent (au):  <R**2>=           2638.9179
 Charge=             -2.0000 electrons
 Dipole moment (field-independent basis, Debye):
    X=              2.9340    Y=              0.0000    Z=             -0.0065  Tot=              2.9340
 Quadrupole moment (field-independent basis, Debye-Ang):
   XX=           -142.1383   YY=           -141.5051   ZZ=           -136.8559
   XY=              0.0000   XZ=             -0.0008   YZ=              0.0000
 Traceless Quadrupole moment (field-independent basis, Debye-Ang):
   XX=             -1.9719   YY=             -1.3387   ZZ=              3.3105
   XY=              0.0000   XZ=             -0.0008   YZ=              0.0000
 Octapole moment (field-independent basis, Debye-Ang**2):
  XXX=             16.6228  YYY=             -0.0001  ZZZ=             -0.0542  XYY=              1.2938
  XXY=              0.0000  XXZ=             -0.0060  XZZ=              7.3208  YZZ=              0.0000
  YYZ=             -0.0006  XYZ=             -0.0004
 Hexadecapole moment (field-independent basis, Debye-Ang**3):
 XXXX=          -1465.2879 YYYY=          -1286.3463 ZZZZ=          -1190.9654 XXXY=              0.0000
 XXXZ=              0.1265 YYYX=              0.0000 YYYZ=              0.0038 ZZZX=             -0.1344
 ZZZY=             -0.0025 XXYY=           -439.3597 XXZZ=           -399.2230 YYZZ=           -391.9284
 XXYZ=             -0.0003 YYXZ=              0.0058 ZZXY=              0.0000
 N-N= 2.597038051587D+03 E-N=-5.171627232914D+04  KE= 1.931329622092D+04
 Calculating spin-rotation constants.
 Leave Link  601 at Sat Oct 30 01:41:36 2021, MaxMem=  2013265920 cpu:         3.8
 (Enter /scr/programas/g09/l9999.exe)
 1\1\GINC-NQTCM04\SP\RPBEPBE\Gen\Cl5N1O2Pt1(2-)\DIEGO\30-Oct-2021\0\\#P
 BEPBE/gen scf=maxcycle=200 NMR=GIAO Scrf=(solvent=water)\\estrutura 25
 \\-2,1\Pt,0,0.083147,0.,0.000169\N,0,-2.016873,0.000001,-0.002615\O,0,
 -2.593226,1.069291,-0.002622\O,0,-2.593227,-1.069289,-0.002586\Cl,0,-0
 .000322,-0.000121,2.383521\Cl,0,0.182698,2.391067,0.00023\Cl,0,0.00550
 4,0.000122,-2.383062\Cl,0,0.182696,-2.391068,-0.000021\Cl,0,2.519086,-
 0.000001,0.002086\\Version=EM64L-G09RevD.01\State=1-A\HF=-19616.106464
 \RMSD=4.991e-09\Dipole=-1.154305,0.0000043,-0.002573\Quadrupole=-1.466
 0355,-0.9952611,2.4612965,-0.0000032,0.0006243,-0.0000156\PG=C01 [X(Cl
 5N1O2Pt1)]\\@


 IF THE FACTS DO NOT CONFORM TO THE THEORY, THEY MUST BE DISPOSED OF.
 Job cpu time:       0 days  0 hours 41 minutes 33.8 seconds.
 File lengths (MBytes):  RWF=    122 Int=      0 D2E=      0 Chk=     10 Scr=      1
 Normal termination of Gaussian 09 at Sat Oct 30 01:41:36 2021.
