 Entering Gaussian System, Link 0=g09
 Input=estrutura62freq_LANL2DZ_TZVP.com
 Output=estrutura62freq_LANL2DZ_TZVP.log
 Initial command:
 /scr/programas/g09/l1.exe "/scr/diego/Gau-7729.inp" -scrdir="/scr/diego/"
 Entering Link 1 = /scr/programas/g09/l1.exe PID=      7731.
  
 Copyright (c) 1988,1990,1992,1993,1995,1998,2003,2009,2013,
            Gaussian, Inc.  All Rights Reserved.
  
 This is part of the Gaussian(R) 09 program.  It is based on
 the Gaussian(R) 03 system (copyright 2003, Gaussian, Inc.),
 the Gaussian(R) 98 system (copyright 1998, Gaussian, Inc.),
 the Gaussian(R) 94 system (copyright 1995, Gaussian, Inc.),
 the Gaussian 92(TM) system (copyright 1992, Gaussian, Inc.),
 the Gaussian 90(TM) system (copyright 1990, Gaussian, Inc.),
 the Gaussian 88(TM) system (copyright 1988, Gaussian, Inc.),
 the Gaussian 86(TM) system (copyright 1986, Carnegie Mellon
 University), and the Gaussian 82(TM) system (copyright 1983,
 Carnegie Mellon University). Gaussian is a federally registered
 trademark of Gaussian, Inc.
  
 This software contains proprietary and confidential information,
 including trade secrets, belonging to Gaussian, Inc.
  
 This software is provided under written license and may be
 used, copied, transmitted, or stored only in accord with that
 written license.
  
 The following legend is applicable only to US Government
 contracts under FAR:
  
                    RESTRICTED RIGHTS LEGEND
  
 Use, reproduction and disclosure by the US Government is
 subject to restrictions as set forth in subparagraphs (a)
 and (c) of the Commercial Computer Software - Restricted
 Rights clause in FAR 52.227-19.
  
 Gaussian, Inc.
 340 Quinnipiac St., Bldg. 40, Wallingford CT 06492
  
  
 ---------------------------------------------------------------
 Warning -- This program may not be used in any manner that
 competes with the business of Gaussian, Inc. or will provide
 assistance to any competitor of Gaussian, Inc.  The licensee
 of this program is prohibited from giving any competitor of
 Gaussian, Inc. access to this program.  By using this program,
 the user acknowledges that Gaussian, Inc. is engaged in the
 business of creating and licensing software in the field of
 computational chemistry and represents and warrants to the
 licensee that it is not a competitor of Gaussian, Inc. and that
 it will not use this program in any manner prohibited above.
 ---------------------------------------------------------------
  

 Cite this work as:
 Gaussian 09, Revision D.01,
 M. J. Frisch, G. W. Trucks, H. B. Schlegel, G. E. Scuseria, 
 M. A. Robb, J. R. Cheeseman, G. Scalmani, V. Barone, B. Mennucci, 
 G. A. Petersson, H. Nakatsuji, M. Caricato, X. Li, H. P. Hratchian, 
 A. F. Izmaylov, J. Bloino, G. Zheng, J. L. Sonnenberg, M. Hada, 
 M. Ehara, K. Toyota, R. Fukuda, J. Hasegawa, M. Ishida, T. Nakajima, 
 Y. Honda, O. Kitao, H. Nakai, T. Vreven, J. A. Montgomery, Jr., 
 J. E. Peralta, F. Ogliaro, M. Bearpark, J. J. Heyd, E. Brothers, 
 K. N. Kudin, V. N. Staroverov, T. Keith, R. Kobayashi, J. Normand, 
 K. Raghavachari, A. Rendell, J. C. Burant, S. S. Iyengar, J. Tomasi, 
 M. Cossi, N. Rega, J. M. Millam, M. Klene, J. E. Knox, J. B. Cross, 
 V. Bakken, C. Adamo, J. Jaramillo, R. Gomperts, R. E. Stratmann, 
 O. Yazyev, A. J. Austin, R. Cammi, C. Pomelli, J. W. Ochterski, 
 R. L. Martin, K. Morokuma, V. G. Zakrzewski, G. A. Voth, 
 P. Salvador, J. J. Dannenberg, S. Dapprich, A. D. Daniels, 
 O. Farkas, J. B. Foresman, J. V. Ortiz, J. Cioslowski, 
 and D. J. Fox, Gaussian, Inc., Wallingford CT, 2013.
 
 ******************************************
 Gaussian 09:  EM64L-G09RevD.01 24-Apr-2013
                30-Oct-2021 
 ******************************************
 %mem=15Gb
 %nproc=4
 Will use up to    4 processors via shared memory.
 ----------------------------------------------------------
 #PBEPBE/gen scf=maxcycle=200 NMR=GIAO Scrf=(solvent=water)
 ----------------------------------------------------------
 1/38=1/1;
 2/12=2,17=6,18=5,40=1/2;
 3/5=7,11=2,16=1,25=1,30=1,70=2201,72=1,74=1009/1,2,8,3;
 4//1;
 5/5=2,7=200,38=5,53=1/2;
 8/6=1,10=90,11=11/1;
 10/13=100,45=16/2;
 6/7=2,8=2,9=2,10=2,28=1/1;
 99/9=1/99;
 Leave Link    1 at Sat Oct 30 09:01:19 2021, MaxMem=  2013265920 cpu:         0.2
 (Enter /scr/programas/g09/l101.exe)
 ------------
 estrutura 62
 ------------
 Symbolic Z-matrix:
 Charge = -2 Multiplicity = 1
 Pt                    0.00001   0.00003   0.00003 
 N                    -0.05978  -1.45492   1.5679 
 O                    -0.81063  -1.29182   2.5129 
 O                     0.67254  -2.42766   1.46782 
 N                    -0.11652   1.64351   1.36952 
 O                     0.66049   2.57241   1.21006 
 O                    -0.94941   1.62831   2.25768 
 N                     0.05976   1.45533  -1.56748 
 N                     0.11638  -1.64351  -1.36931 
 O                    -0.65935  -2.57324  -1.20833 
 O                     0.94773  -1.62748  -2.2589 
 O                    -0.67229   2.42826  -1.46673 
 O                     0.81028   1.29247  -2.51276 
 Br                   -2.53013  -0.04747  -0.23658 
 Br                    2.53029   0.04704   0.236 
 
 NAtoms=     15 NQM=       15 NQMF=       0 NMMI=      0 NMMIF=      0
                NMic=       0 NMicF=      0.
                    Isotopes and Nuclear Properties:
 (Nuclear quadrupole moments (NQMom) in fm**2, nuclear magnetic moments (NMagM)
  in nuclear magnetons)

  Atom         1           2           3           4           5           6           7           8           9          10
 IAtWgt=         195          14          16          16          14          16          16          14          14          16
 AtmWgt= 194.9648000  14.0030740  15.9949146  15.9949146  14.0030740  15.9949146  15.9949146  14.0030740  14.0030740  15.9949146
 NucSpn=           1           2           0           0           2           0           0           2           2           0
 AtZEff=   0.0000000   0.0000000   0.0000000   0.0000000   0.0000000   0.0000000   0.0000000   0.0000000   0.0000000   0.0000000
 NQMom=    0.0000000   2.0440000   0.0000000   0.0000000   2.0440000   0.0000000   0.0000000   2.0440000   2.0440000   0.0000000
 NMagM=    0.6095000   0.4037610   0.0000000   0.0000000   0.4037610   0.0000000   0.0000000   0.4037610   0.4037610   0.0000000
 AtZNuc=  78.0000000   7.0000000   8.0000000   8.0000000   7.0000000   8.0000000   8.0000000   7.0000000   7.0000000   8.0000000

  Atom        11          12          13          14          15
 IAtWgt=          16          16          16          79          79
 AtmWgt=  15.9949146  15.9949146  15.9949146  78.9183361  78.9183361
 NucSpn=           0           0           0           3           3
 AtZEff=   0.0000000   0.0000000   0.0000000   0.0000000   0.0000000
 NQMom=    0.0000000   0.0000000   0.0000000  31.3000000  31.3000000
 NMagM=    0.0000000   0.0000000   0.0000000   2.1063990   2.1063990
 AtZNuc=   8.0000000   8.0000000   8.0000000  35.0000000  35.0000000
 Leave Link  101 at Sat Oct 30 09:01:19 2021, MaxMem=  2013265920 cpu:         0.4
 (Enter /scr/programas/g09/l202.exe)
                          Input orientation:                          
 ---------------------------------------------------------------------
 Center     Atomic      Atomic             Coordinates (Angstroms)
 Number     Number       Type             X           Y           Z
 ---------------------------------------------------------------------
      1         78           0        0.000007    0.000028    0.000025
      2          7           0       -0.059783   -1.454919    1.567902
      3          8           0       -0.810625   -1.291817    2.512901
      4          8           0        0.672535   -2.427655    1.467817
      5          7           0       -0.116522    1.643512    1.369516
      6          8           0        0.660486    2.572406    1.210057
      7          8           0       -0.949413    1.628305    2.257676
      8          7           0        0.059758    1.455334   -1.567481
      9          7           0        0.116379   -1.643514   -1.369308
     10          8           0       -0.659352   -2.573236   -1.208329
     11          8           0        0.947734   -1.627477   -2.258897
     12          8           0       -0.672287    2.428257   -1.466727
     13          8           0        0.810276    1.292466   -2.512757
     14         35           0       -2.530126   -0.047466   -0.236576
     15         35           0        2.530293    0.047036    0.235998
 ---------------------------------------------------------------------
                    Distance matrix (angstroms):
                    1          2          3          4          5
     1  Pt   0.000000
     2  N    2.139786   0.000000
     3  O    2.939478   1.217945   0.000000
     4  O    2.915536   1.221688   2.140582   0.000000
     5  N    2.142458   3.105294   3.225719   4.148093   0.000000
     6  O    2.918482   4.106846   4.335180   5.006715   1.221480
     7  O    2.941033   3.282301   2.934538   4.439077   1.217689
     8  N    2.139757   4.279543   4.995390   4.966501   2.948294
     9  N    2.142392   2.948526   4.006816   2.995574   4.284850
    10  O    2.918315   3.052470   3.938587   2.992804   4.972013
    11  O    2.941035   3.960967   5.096523   3.821573   4.999739
    12  O    2.915414   4.966205   5.449360   5.830950   2.994825
    13  O    2.939559   4.995689   5.879037   5.450068   4.006773
    14  Br   2.541615   3.367441   3.473430   4.339043   3.356251
    15  Br   2.541700   3.276939   4.258937   3.330576   3.292298
                    6          7          8          9         10
     6  O    0.000000
     7  O    2.140235   0.000000
     8  N    3.053431   3.959820   0.000000
     9  N    4.972239   4.999572   3.105694   0.000000
    10  O    5.836797   5.454381   4.107978   1.221497   0.000000
    11  O    5.454830   5.882067   3.281811   1.217693   2.140299
    12  O    2.993699   3.819411   1.221728   4.148591   5.008180
    13  O    3.939547   5.095716   1.217929   3.226290   4.336472
    14  Br   4.374526   3.395314   3.276769   3.291571   3.289926
    15  Br   3.289751   4.323881   3.367400   3.355883   4.373299
                   11         12         13         14         15
    11  O    0.000000
    12  O    4.438579   0.000000
    13  O    2.934179   2.140606   0.000000
    14  Br   4.322236   3.330772   4.258486   0.000000
    15  Br   3.396025   4.338894   3.473501   5.083316   0.000000
 Stoichiometry    Br2N4O8Pt(2-)
 Framework group  C1[X(Br2N4O8Pt)]
 Deg. of freedom    39
 Full point group                 C1      NOp   1
 Largest Abelian subgroup         C1      NOp   1
 Largest concise Abelian subgroup C1      NOp   1
                         Standard orientation:                         
 ---------------------------------------------------------------------
 Center     Atomic      Atomic             Coordinates (Angstroms)
 Number     Number       Type             X           Y           Z
 ---------------------------------------------------------------------
      1         78           0        0.000007    0.000028    0.000025
      2          7           0       -0.059783   -1.454919    1.567902
      3          8           0       -0.810625   -1.291817    2.512901
      4          8           0        0.672534   -2.427655    1.467817
      5          7           0       -0.116522    1.643512    1.369516
      6          8           0        0.660486    2.572406    1.210057
      7          8           0       -0.949413    1.628305    2.257676
      8          7           0        0.059758    1.455334   -1.567481
      9          7           0        0.116379   -1.643514   -1.369308
     10          8           0       -0.659353   -2.573236   -1.208329
     11          8           0        0.947734   -1.627477   -2.258897
     12          8           0       -0.672287    2.428257   -1.466727
     13          8           0        0.810276    1.292466   -2.512757
     14         35           0       -2.530126   -0.047466   -0.236576
     15         35           0        2.530293    0.047036    0.235998
 ---------------------------------------------------------------------
 Rotational constants (GHZ):      0.3934404      0.2972662      0.2866272
 Leave Link  202 at Sat Oct 30 09:01:19 2021, MaxMem=  2013265920 cpu:         0.0
 (Enter /scr/programas/g09/l301.exe)
 General basis read from cards:  (5D, 7F)
 Centers:       2      5      8      9
 S 6 1.00
     Exponent=  1.2238326969D+04 Coefficients=  5.6000000000D-04
     Exponent=  4.0794423230D+03 Coefficients=  7.7000000000D-04
     Exponent=  1.3598141077D+03 Coefficients=  4.0600000000D-03
     Exponent=  4.5327136922D+02 Coefficients=  1.3910000000D-02
     Exponent=  1.5109045641D+02 Coefficients=  5.2990000000D-02
     Exponent=  5.0363485469D+01 Coefficients=  1.6952000000D-01
 S 1 1.00
     Exponent=  1.6787828490D+01 Coefficients=  1.0000000000D+00
 S 1 1.00
     Exponent=  5.5959428299D+00 Coefficients=  1.0000000000D+00
 S 1 1.00
     Exponent=  1.8653142766D+00 Coefficients=  1.0000000000D+00
 S 1 1.00
     Exponent=  6.2177142554D-01 Coefficients=  1.0000000000D+00
 S 1 1.00
     Exponent=  2.0725714185D-01 Coefficients=  1.0000000000D+00
 P 4 1.00
     Exponent=  5.4142548249D+01 Coefficients=  3.9700000000D-03
     Exponent=  1.6659245615D+01 Coefficients=  1.9540000000D-02
     Exponent=  5.1259217277D+00 Coefficients=  9.9790000000D-02
     Exponent=  1.5772066854D+00 Coefficients=  3.2845000000D-01
 P 1 1.00
     Exponent=  4.8529436475D-01 Coefficients=  1.0000000000D+00
 P 1 1.00
     Exponent=  1.4932134300D-01 Coefficients=  1.0000000000D+00
 D 1 1.00
     Exponent=  4.7700000000D-01 Coefficients=  1.0000000000D+00
 D 1 1.00
     Exponent=  1.5026000000D-01 Coefficients=  1.0000000000D+00
 ****
 Centers:       3      4      6      7     10     11     12     13
 S 6 1.00
     Exponent=  1.6178118231D+04 Coefficients=  6.0000000000D-04
     Exponent=  5.3927060771D+03 Coefficients=  7.8000000000D-04
     Exponent=  1.7975686924D+03 Coefficients=  4.1000000000D-03
     Exponent=  5.9918956413D+02 Coefficients=  1.3880000000D-02
     Exponent=  1.9972985471D+02 Coefficients=  5.2770000000D-02
     Exponent=  6.6576618236D+01 Coefficients=  1.6924000000D-01
 S 1 1.00
     Exponent=  2.2192206079D+01 Coefficients=  1.0000000000D+00
 S 1 1.00
     Exponent=  7.3974020263D+00 Coefficients=  1.0000000000D+00
 S 1 1.00
     Exponent=  2.4658006754D+00 Coefficients=  1.0000000000D+00
 S 1 1.00
     Exponent=  8.2193355847D-01 Coefficients=  1.0000000000D+00
 S 1 1.00
     Exponent=  2.7397785282D-01 Coefficients=  1.0000000000D+00
 P 4 1.00
     Exponent=  7.3854398670D+01 Coefficients=  4.0200000000D-03
     Exponent=  2.2724430360D+01 Coefficients=  2.0130000000D-02
     Exponent=  6.9921324184D+00 Coefficients=  1.0470000000D-01
     Exponent=  2.1514253595D+00 Coefficients=  3.3605000000D-01
 P 1 1.00
     Exponent=  6.6197703370D-01 Coefficients=  1.0000000000D+00
 P 1 1.00
     Exponent=  2.0368524114D-01 Coefficients=  1.0000000000D+00
 D 1 1.00
     Exponent=  9.2880000000D-01 Coefficients=  1.0000000000D+00
 D 1 1.00
     Exponent=  2.2975000000D-01 Coefficients=  1.0000000000D+00
 ****
 Centers:      14     15
 S 7 1.00
     Exponent=  3.4867099512D+05 Coefficients=  2.4100000000D-03
     Exponent=  1.3946839805D+05 Coefficients=  1.2000000000D-04
     Exponent=  5.5787359218D+04 Coefficients=  5.8500000000D-03
     Exponent=  2.2314943687D+04 Coefficients=  8.2100000000D-03
     Exponent=  8.9259774750D+03 Coefficients=  2.4090000000D-02
     Exponent=  3.5703909900D+03 Coefficients=  5.7250000000D-02
     Exponent=  1.4281563960D+03 Coefficients=  1.4467000000D-01
 S 1 1.00
     Exponent=  5.7126255840D+02 Coefficients=  1.0000000000D+00
 S 1 1.00
     Exponent=  2.2850502336D+02 Coefficients=  1.0000000000D+00
 S 1 1.00
     Exponent=  9.1402009344D+01 Coefficients=  1.0000000000D+00
 S 1 1.00
     Exponent=  3.6560803737D+01 Coefficients=  1.0000000000D+00
 S 1 1.00
     Exponent=  1.4624321495D+01 Coefficients=  1.0000000000D+00
 S 1 1.00
     Exponent=  5.8497285980D+00 Coefficients=  1.0000000000D+00
 S 1 1.00
     Exponent=  2.3398914392D+00 Coefficients=  1.0000000000D+00
 S 1 1.00
     Exponent=  9.3595657568D-01 Coefficients=  1.0000000000D+00
 S 1 1.00
     Exponent=  3.7438263027D-01 Coefficients=  1.0000000000D+00
 S 1 1.00
     Exponent=  1.4975305211D-01 Coefficients=  1.0000000000D+00
 S 1 1.00
     Exponent=  5.9901220843D-02 Coefficients=  1.0000000000D+00
 P 5 1.00
     Exponent=  4.2715043612D+03 Coefficients=  2.0900000000D-03
     Exponent=  1.5532743132D+03 Coefficients=  5.5700000000D-03
     Exponent=  5.6482702297D+02 Coefficients=  3.0250000000D-02
     Exponent=  2.0539164472D+02 Coefficients=  1.2196000000D-01
     Exponent=  7.4687870806D+01 Coefficients=  3.7861000000D-01
 P 1 1.00
     Exponent=  2.7159225748D+01 Coefficients=  1.0000000000D+00
 P 1 1.00
     Exponent=  9.8760820901D+00 Coefficients=  1.0000000000D+00
 P 1 1.00
     Exponent=  3.5913025782D+00 Coefficients=  1.0000000000D+00
 P 1 1.00
     Exponent=  1.3059282103D+00 Coefficients=  1.0000000000D+00
 P 1 1.00
     Exponent=  4.7488298555D-01 Coefficients=  1.0000000000D+00
 P 1 1.00
     Exponent=  1.7268472202D-01 Coefficients=  1.0000000000D+00
 P 1 1.00
     Exponent=  6.2794444370D-02 Coefficients=  1.0000000000D+00
 P 1 1.00
     Exponent=  2.2834343407D-02 Coefficients=  1.0000000000D+00
 D 4 1.00
     Exponent=  1.5776624282D+02 Coefficients=  7.9800000000D-03
     Exponent=  5.2588747607D+01 Coefficients=  4.9870000000D-02
     Exponent=  1.7529582536D+01 Coefficients=  2.2405000000D-01
     Exponent=  5.8431941786D+00 Coefficients=  4.4250000000D-01
 D 1 1.00
     Exponent=  1.9477313929D+00 Coefficients=  1.0000000000D+00
 D 1 1.00
     Exponent=  6.4924379762D-01 Coefficients=  1.0000000000D+00
 F 1 1.00
     Exponent=  1.6480000000D+00 Coefficients=  1.0000000000D+00
 F 1 1.00
     Exponent=  4.5490000000D-01 Coefficients=  1.0000000000D+00
 ****
 Centers:       1
 S 9 1.00
     Exponent=  2.1644816090D+06 Coefficients=  1.2320000000D-02
     Exponent=  1.0822408045D+06 Coefficients=  1.2970000000D-02
     Exponent=  5.4112040224D+05 Coefficients=  2.6370000000D-02
     Exponent=  2.7056020112D+05 Coefficients=  9.0400000000D-03
     Exponent=  1.3528010056D+05 Coefficients=  3.4980000000D-02
     Exponent=  6.7640050280D+04 Coefficients=  1.2220000000D-02
     Exponent=  3.3820025140D+04 Coefficients=  6.0520000000D-02
     Exponent=  1.6910012570D+04 Coefficients=  6.4930000000D-02
     Exponent=  8.4550062850D+03 Coefficients=  1.3819000000D-01
 S 1 1.00
     Exponent=  4.2275031425D+03 Coefficients=  1.0000000000D+00
 S 1 1.00
     Exponent=  2.1137515713D+03 Coefficients=  1.0000000000D+00
 S 1 1.00
     Exponent=  1.0568757856D+03 Coefficients=  1.0000000000D+00
 S 1 1.00
     Exponent=  5.2843789281D+02 Coefficients=  1.0000000000D+00
 S 1 1.00
     Exponent=  2.6421894641D+02 Coefficients=  1.0000000000D+00
 S 1 1.00
     Exponent=  1.3210947320D+02 Coefficients=  1.0000000000D+00
 S 1 1.00
     Exponent=  6.6054736602D+01 Coefficients=  1.0000000000D+00
 S 1 1.00
     Exponent=  3.3027368301D+01 Coefficients=  1.0000000000D+00
 S 1 1.00
     Exponent=  1.6513684150D+01 Coefficients=  1.0000000000D+00
 S 1 1.00
     Exponent=  8.2568420752D+00 Coefficients=  1.0000000000D+00
 S 1 1.00
     Exponent=  4.1284210376D+00 Coefficients=  1.0000000000D+00
 S 1 1.00
     Exponent=  2.0642105188D+00 Coefficients=  1.0000000000D+00
 S 1 1.00
     Exponent=  1.0321052594D+00 Coefficients=  1.0000000000D+00
 S 1 1.00
     Exponent=  5.1605262970D-01 Coefficients=  1.0000000000D+00
 S 1 1.00
     Exponent=  2.5802631485D-01 Coefficients=  1.0000000000D+00
 S 1 1.00
     Exponent=  1.2901315743D-01 Coefficients=  1.0000000000D+00
 S 1 1.00
     Exponent=  6.4506578713D-02 Coefficients=  1.0000000000D+00
 P 7 1.00
     Exponent=  3.2357915258D+04 Coefficients=  5.0200000000D-03
     Exponent=  1.4381295670D+04 Coefficients=  2.0200000000D-03
     Exponent=  6.3916869645D+03 Coefficients=  1.8070000000D-02
     Exponent=  2.8407497620D+03 Coefficients=  3.6620000000D-02
     Exponent=  1.2625554498D+03 Coefficients=  1.1172000000D-01
     Exponent=  5.6113575545D+02 Coefficients=  2.5586000000D-01
     Exponent=  2.4939366909D+02 Coefficients=  4.2608000000D-01
 P 1 1.00
     Exponent=  1.1084163071D+02 Coefficients=  1.0000000000D+00
 P 1 1.00
     Exponent=  4.9262946981D+01 Coefficients=  1.0000000000D+00
 P 1 1.00
     Exponent=  2.1894643103D+01 Coefficients=  1.0000000000D+00
 P 1 1.00
     Exponent=  9.7309524900D+00 Coefficients=  1.0000000000D+00
 P 1 1.00
     Exponent=  4.3248677733D+00 Coefficients=  1.0000000000D+00
 P 1 1.00
     Exponent=  1.9221634548D+00 Coefficients=  1.0000000000D+00
 P 1 1.00
     Exponent=  8.5429486881D-01 Coefficients=  1.0000000000D+00
 P 1 1.00
     Exponent=  3.7968660836D-01 Coefficients=  1.0000000000D+00
 P 1 1.00
     Exponent=  1.6874960372D-01 Coefficients=  1.0000000000D+00
 P 1 1.00
     Exponent=  7.4999823874D-02 Coefficients=  1.0000000000D+00
 P 1 1.00
     Exponent=  3.3333255055D-02 Coefficients=  1.0000000000D+00
 D 5 1.00
     Exponent=  1.9119003508D+03 Coefficients=  4.3300000000D-03
     Exponent=  7.6476014031D+02 Coefficients=  1.7780000000D-02
     Exponent=  3.0590405613D+02 Coefficients=  8.9710000000D-02
     Exponent=  1.2236162245D+02 Coefficients=  3.1123000000D-01
     Exponent=  4.8944648980D+01 Coefficients=  5.3206000000D-01
 D 1 1.00
     Exponent=  1.9577859592D+01 Coefficients=  1.0000000000D+00
 D 1 1.00
     Exponent=  7.8311438368D+00 Coefficients=  1.0000000000D+00
 D 1 1.00
     Exponent=  3.1324575347D+00 Coefficients=  1.0000000000D+00
 D 1 1.00
     Exponent=  1.2529830139D+00 Coefficients=  1.0000000000D+00
 D 1 1.00
     Exponent=  5.0119320556D-01 Coefficients=  1.0000000000D+00
 D 1 1.00
     Exponent=  2.0047728222D-01 Coefficients=  1.0000000000D+00
 D 1 1.00
     Exponent=  8.0190912889D-02 Coefficients=  1.0000000000D+00
 D 1 1.00
     Exponent=  3.2076365156D-02 Coefficients=  1.0000000000D+00
 F 4 1.00
     Exponent=  8.2289680979D+01 Coefficients=  6.1870000000D-02
     Exponent=  2.9923520356D+01 Coefficients=  2.4823000000D-01
     Exponent=  1.0881280130D+01 Coefficients=  4.9956000000D-01
     Exponent=  3.9568291380D+00 Coefficients=  4.0380000000D-01
 F 1 1.00
     Exponent=  1.4388469593D+00 Coefficients=  1.0000000000D+00
 F 1 1.00
     Exponent=  5.2321707610D-01 Coefficients=  1.0000000000D+00
 G 1 1.00
     Exponent=  2.6700000000D+00 Coefficients=  1.0000000000D+00
 G 1 1.00
     Exponent=  9.0960000000D-01 Coefficients=  1.0000000000D+00
 ****
 Ernie: Thresh=  0.10000D-02 Tol=  0.10000D-05 Strict=F.
 There are   646 symmetry adapted cartesian basis functions of A   symmetry.
 There are   574 symmetry adapted basis functions of A   symmetry.
   574 basis functions,   966 primitive gaussians,   646 cartesian basis functions
   121 alpha electrons      121 beta electrons
       nuclear repulsion energy      4316.1409344605 Hartrees.
 IExCor= 1009 DFT=T Ex=PBE Corr=PBE ExCW=0 ScaHFX=  0.000000
 ScaDFX=  1.000000  1.000000  1.000000  1.000000 ScalE2=  1.000000  1.000000
 IRadAn=      0 IRanWt=     -1 IRanGd=            0 ICorTp=0 IEmpDi=  4
 NAtoms=   15 NActive=   15 NUniq=   15 SFac= 1.00D+00 NAtFMM=   60 NAOKFM=F Big=F
 Integral buffers will be    131072 words long.
 Raffenetti 2 integral format.
 Two-electron integral symmetry is turned on.
 ------------------------------------------------------------------------------
 Polarizable Continuum Model (PCM)
 =================================
 Model                : PCM (using non-symmetric T matrix).
 Atomic radii         : UFF (Universal Force Field).
 Polarization charges : Total charges.
 Charge compensation  : None.
 Solution method      : On-the-fly selection.
 Cavity type          : Scaled VdW (van der Waals Surface) (Alpha=1.100).
 Cavity algorithm     : GePol (No added spheres)
                        Default sphere list used, NSphG=   15.
                        Lebedev-Laikov grids with approx.  5.0 points / Ang**2.
                        Smoothing algorithm: Karplus/York (Gamma=1.0000).
                        Polarization charges: spherical gaussians, with
                                              point-specific exponents (IZeta= 3).
                        Self-potential: point-specific (ISelfS= 7).
                        Self-field    : sphere-specific E.n sum rule (ISelfD= 2).
 Solvent              : Water, Eps=  78.355300 Eps(inf)=   1.777849
 ------------------------------------------------------------------------------
 Spheres list:
 ISph  on   Nord     Re0    Alpha      Xe            Ye            Ze
    1  Pt      1    1.3770  1.100      0.000007      0.000028      0.000025
    2   N      2    1.8300  1.100     -0.059783     -1.454919      1.567902
    3   O      3    1.7500  1.100     -0.810625     -1.291817      2.512901
    4   O      4    1.7500  1.100      0.672534     -2.427655      1.467817
    5   N      5    1.8300  1.100     -0.116522      1.643512      1.369516
    6   O      6    1.7500  1.100      0.660486      2.572406      1.210057
    7   O      7    1.7500  1.100     -0.949413      1.628305      2.257676
    8   N      8    1.8300  1.100      0.059758      1.455334     -1.567481
    9   N      9    1.8300  1.100      0.116379     -1.643514     -1.369308
   10   O     10    1.7500  1.100     -0.659353     -2.573236     -1.208329
   11   O     11    1.7500  1.100      0.947734     -1.627477     -2.258897
   12   O     12    1.7500  1.100     -0.672287      2.428257     -1.466727
   13   O     13    1.7500  1.100      0.810276      1.292466     -2.512757
   14  Br     14    2.0945  1.100     -2.530126     -0.047466     -0.236576
   15  Br     15    2.0945  1.100      2.530293      0.047036      0.235998
 ------------------------------------------------------------------------------
 GePol: Number of generator spheres                  =      15
 GePol: Total number of spheres                      =      15
 GePol: Number of exposed spheres                    =      14 ( 93.33%)
 GePol: Number of points                             =    1924
 GePol: Average weight of points                     =       0.14
 GePol: Minimum weight of points                     =   0.74D-08
 GePol: Maximum weight of points                     =    0.18586
 GePol: Number of points with low weight             =      66
 GePol: Fraction of low-weight points (<1% of avg)   =       3.43%
 GePol: Cavity surface area                          =    263.683 Ang**2
 GePol: Cavity volume                                =    291.512 Ang**3
 Leave Link  301 at Sat Oct 30 09:01:19 2021, MaxMem=  2013265920 cpu:         0.6
 (Enter /scr/programas/g09/l302.exe)
 NPDir=0 NMtPBC=     1 NCelOv=     1 NCel=       1 NClECP=     1 NCelD=      1
         NCelK=      1 NCelE2=     1 NClLst=     1 CellRange=     0.0.
 One-electron integrals computed using PRISM.
 NBasis=   574 RedAO= T EigKep=  3.84D-05  NBF=   574
 NBsUse=   574 1.00D-06 EigRej= -1.00D+00 NBFU=   574
 Precomputing XC quadrature grid using
 IXCGrd= 4 IRadAn=           0 IRanWt=          -1 IRanGd=           0 AccXCQ= 0.00D+00.
 Defaulting to unpruned grid for atomic number  78.
 Generated NRdTot=       0 NPtTot=           0 NUsed=           0 NTot=          32
 NSgBfM=   590   590   590   590   590 MxSgAt=    15 MxSgA2=    15.
 Leave Link  302 at Sat Oct 30 09:01:21 2021, MaxMem=  2013265920 cpu:         4.5
 (Enter /scr/programas/g09/l308.exe)
 Leave Link  308 at Sat Oct 30 09:01:21 2021, MaxMem=  2013265920 cpu:         0.7
 (Enter /scr/programas/g09/l303.exe)
 DipDrv:  MaxL=1.
 Leave Link  303 at Sat Oct 30 09:01:21 2021, MaxMem=  2013265920 cpu:         0.5
 (Enter /scr/programas/g09/l401.exe)
 ExpMin= 2.28D-02 ExpMax= 2.16D+06 ExpMxC= 2.16D+06 IAcc=4 IRadAn=    199590 AccDes= 0.00D+00
 Harris functional with IExCor= 1009 and IRadAn=  199590 diagonalized for initial guess.
 HarFok:  IExCor= 1009 AccDes= 0.00D+00 IRadAn=    199590 IDoV= 1 UseB2=F ITyADJ=14
 ICtDFT=  3500011 ScaDFX=  1.000000  1.000000  1.000000  1.000000
 FoFCou: FMM=F IPFlag=           0 FMFlag=      100000 FMFlg1=           0
         NFxFlg=           0 DoJE=T BraDBF=F KetDBF=T FulRan=T
         wScrn=  0.000000 ICntrl=     500 IOpCl=  0 I1Cent=   200000004 NGrid=           0
         NMat0=    1 NMatS0=      1 NMatT0=    0 NMatD0=    1 NMtDS0=    0 NMtDT0=    0
 Petite list used in FoFCou.
 Harris En= -23081.2180162054    
 JPrj=0 DoOrth=F DoCkMO=F.
 Leave Link  401 at Sat Oct 30 09:01:53 2021, MaxMem=  2013265920 cpu:       128.9
 (Enter /scr/programas/g09/l502.exe)
 Closed shell SCF:
 Using DIIS extrapolation, IDIIS=  1040.
 Integral symmetry usage will be decided dynamically.
 IVT=     1303058 IEndB=     1303058 NGot=  2013265920 MDV=  2012421225
 LenX=  2012421225 LenY=  2012003263
 Requested convergence on RMS density matrix=1.00D-08 within 200 cycles.
 Requested convergence on MAX density matrix=1.00D-06.
 Requested convergence on             energy=1.00D-06.
 No special actions if energy rises.
 Fock matrices will be formed incrementally for  20 cycles.

 Cycle   1  Pass 1  IDiag  1:
 FoFJK:  IHMeth= 1 ICntrl=     500 DoSepK=F KAlg= 0 I1Cent=   0 FoldK=F
 IRaf= 760000000 NMat=   1 IRICut=       1 DoRegI=T DoRafI=F ISym2E= 0.
 FoFCou: FMM=F IPFlag=           0 FMFlag=      100000 FMFlg1=           0
         NFxFlg=           0 DoJE=T BraDBF=F KetDBF=F FulRan=T
         wScrn=  0.000000 ICntrl=     500 IOpCl=  0 I1Cent=           0 NGrid=           0
         NMat0=    1 NMatS0=      1 NMatT0=    0 NMatD0=    1 NMtDS0=    0 NMtDT0=    0
 Symmetry not used in FoFCou.
 Defaulting to unpruned grid for atomic number  78.
 Defaulting to unpruned grid for atomic number  78.
 Defaulting to unpruned grid for atomic number  78.
 Defaulting to unpruned grid for atomic number  78.
 Inv3:  Mode=1 IEnd=    11105328.
 Iteration    1 A*A^-1 deviation from unit magnitude is 7.55D-15 for    413.
 Iteration    1 A*A^-1 deviation from orthogonality  is 5.32D-15 for   1251    483.
 Iteration    1 A^-1*A deviation from unit magnitude is 6.77D-15 for   1669.
 Iteration    1 A^-1*A deviation from orthogonality  is 1.50D-13 for   1328   1323.
 E= -23061.4928074232    
 DIIS: error= 7.18D-01 at cycle   1 NSaved=   1.
 NSaved= 1 IEnMin= 1 EnMin= -23061.4928074232     IErMin= 1 ErrMin= 7.18D-01
 ErrMax= 7.18D-01  0.00D+00 EMaxC= 1.00D-01 BMatC= 3.21D+02 BMatP= 3.21D+02
 IDIUse=3 WtCom= 0.00D+00 WtEn= 1.00D+00
 Coeff-Com:  0.100D+01
 Coeff-En:   0.100D+01
 Coeff:      0.100D+01
 Gap=     1.150 Goal=   None    Shift=    0.000
 GapD=    1.150 DampG=2.000 DampE=0.125 DampFc=0.2500 IDamp=-1.
 Damping current iteration by 2.50D-01
 RMSDP=1.52D-02 MaxDP=1.78D+00              OVMax= 7.99D-01

 Cycle   2  Pass 1  IDiag  1:
 RMSU=  3.77D-03    CP:  1.02D+00
 E= -23062.9654870925     Delta-E=       -1.472679669230 Rises=F Damp=T
 DIIS: error= 5.28D-01 at cycle   2 NSaved=   2.
 NSaved= 2 IEnMin= 2 EnMin= -23062.9654870925     IErMin= 2 ErrMin= 5.28D-01
 ErrMax= 5.28D-01  0.00D+00 EMaxC= 1.00D-01 BMatC= 1.53D+02 BMatP= 3.21D+02
 IDIUse=3 WtCom= 0.00D+00 WtEn= 1.00D+00
 Coeff-Com: -0.179D+01 0.279D+01
 Coeff-En:   0.290D+00 0.710D+00
 Coeff:      0.290D+00 0.710D+00
 Gap=    -0.012 Goal=   None    Shift=    0.000
 RMSDP=4.30D-03 MaxDP=4.03D-01 DE=-1.47D+00 OVMax= 8.14D-01

 Cycle   3  Pass 1  IDiag  1:
 RMSU=  4.08D-03    CP:  1.03D+00  6.35D-01
 E= -23063.8367216254     Delta-E=       -0.871234532959 Rises=F Damp=F
 DIIS: error= 1.81D-01 at cycle   3 NSaved=   3.
 NSaved= 3 IEnMin= 3 EnMin= -23063.8367216254     IErMin= 3 ErrMin= 1.81D-01
 ErrMax= 1.81D-01  0.00D+00 EMaxC= 1.00D-01 BMatC= 1.97D+01 BMatP= 1.53D+02
 IDIUse=3 WtCom= 0.00D+00 WtEn= 1.00D+00
 EnCoef did   100 forward-backward iterations
 Coeff-Com:  0.691D+00-0.745D+00 0.105D+01
 Coeff-En:   0.405D+00 0.668D-02 0.588D+00
 Coeff:      0.405D+00 0.668D-02 0.588D+00
 Gap=     0.033 Goal=   None    Shift=    0.000
 RMSDP=3.92D-03 MaxDP=3.47D-01 DE=-8.71D-01 OVMax= 6.14D-01

 Cycle   4  Pass 1  IDiag  1:
 RMSU=  2.17D-03    CP:  1.01D+00  2.39D-01  2.94D-01
 E= -23066.1977926504     Delta-E=       -2.361071024981 Rises=F Damp=F
 DIIS: error= 5.15D-02 at cycle   4 NSaved=   4.
 NSaved= 4 IEnMin= 4 EnMin= -23066.1977926504     IErMin= 4 ErrMin= 5.15D-02
 ErrMax= 5.15D-02  0.00D+00 EMaxC= 1.00D-01 BMatC= 2.49D+00 BMatP= 1.97D+01
 IDIUse=3 WtCom= 4.85D-01 WtEn= 5.15D-01
 Coeff-Com:  0.764D-01-0.406D-01 0.271D+00 0.693D+00
 Coeff-En:   0.000D+00 0.000D+00 0.327D+00 0.673D+00
 Coeff:      0.371D-01-0.197D-01 0.299D+00 0.683D+00
 Gap=     0.197 Goal=   None    Shift=    0.000
 RMSDP=3.70D-03 MaxDP=1.89D-01 DE=-2.36D+00 OVMax= 8.46D-01

 Cycle   5  Pass 1  IDiag  1:
 RMSU=  2.27D-03    CP:  1.00D+00  4.33D-01  6.80D-01 -8.53D-02
 E= -23064.8898566715     Delta-E=        1.307935978883 Rises=F Damp=F
 DIIS: error= 4.70D-02 at cycle   5 NSaved=   5.
 NSaved= 5 IEnMin= 4 EnMin= -23066.1977926504     IErMin= 5 ErrMin= 4.70D-02
 ErrMax= 4.70D-02  0.00D+00 EMaxC= 1.00D-01 BMatC= 3.16D+00 BMatP= 2.49D+00
 IDIUse=2 WtCom= 0.00D+00 WtEn= 1.00D+00
 EnCoef did    10 forward-backward iterations
 Coeff-En:   0.000D+00 0.000D+00 0.792D-01 0.596D+00 0.324D+00
 Coeff:      0.000D+00 0.000D+00 0.792D-01 0.596D+00 0.324D+00
 Gap=    -0.157 Goal=   None    Shift=    0.000
 RMSDP=2.63D-03 MaxDP=1.24D-01 DE= 1.31D+00 OVMax= 7.93D-01

 Cycle   6  Pass 1  IDiag  1:
 RMSU=  1.47D-03    CP:  1.01D+00  4.02D-01  6.37D-01  2.86D-01  1.11D-01
 E= -23066.9565278397     Delta-E=       -2.066671168148 Rises=F Damp=F
 DIIS: error= 3.36D-02 at cycle   6 NSaved=   6.
 NSaved= 6 IEnMin= 6 EnMin= -23066.9565278397     IErMin= 6 ErrMin= 3.36D-02
 ErrMax= 3.36D-02  0.00D+00 EMaxC= 1.00D-01 BMatC= 1.13D+00 BMatP= 2.49D+00
 IDIUse=3 WtCom= 6.64D-01 WtEn= 3.36D-01
 EnCoef did     2 forward-backward iterations
 Coeff-Com: -0.523D-01 0.795D-01-0.204D-01 0.391D+00 0.266D+00 0.336D+00
 Coeff-En:   0.000D+00 0.000D+00 0.000D+00 0.369D+00 0.191D+00 0.439D+00
 Coeff:     -0.348D-01 0.528D-01-0.136D-01 0.384D+00 0.241D+00 0.371D+00
 Gap=     0.092 Goal=   None    Shift=    0.000
 RMSDP=1.68D-03 MaxDP=1.01D-01 DE=-2.07D+00 OVMax= 3.68D-01

 Cycle   7  Pass 1  IDiag  1:
 RMSU=  9.88D-04    CP:  1.01D+00  2.56D-01  4.71D-01  3.94D-01  7.14D-02
                    CP:  3.11D-01
 E= -23067.4550157044     Delta-E=       -0.498487864712 Rises=F Damp=F
 DIIS: error= 3.33D-02 at cycle   7 NSaved=   7.
 NSaved= 7 IEnMin= 7 EnMin= -23067.4550157044     IErMin= 7 ErrMin= 3.33D-02
 ErrMax= 3.33D-02  0.00D+00 EMaxC= 1.00D-01 BMatC= 3.50D-01 BMatP= 1.13D+00
 IDIUse=3 WtCom= 6.67D-01 WtEn= 3.33D-01
 Coeff-Com: -0.102D+00 0.138D+00-0.523D-01 0.133D+00 0.829D-01 0.301D+00
 Coeff-Com:  0.499D+00
 Coeff-En:   0.000D+00 0.000D+00 0.000D+00 0.000D+00 0.000D+00 0.313D+00
 Coeff-En:   0.687D+00
 Coeff:     -0.679D-01 0.923D-01-0.349D-01 0.888D-01 0.553D-01 0.305D+00
 Coeff:      0.561D+00
 Gap=     0.081 Goal=   None    Shift=    0.000
 RMSDP=1.18D-03 MaxDP=6.51D-02 DE=-4.98D-01 OVMax= 2.37D-01

 Cycle   8  Pass 1  IDiag  1:
 RMSU=  7.84D-04    CP:  1.01D+00  3.54D-01  5.54D-01  4.99D-01  1.35D-01
                    CP:  4.60D-01  3.56D-01
 E= -23067.6019832691     Delta-E=       -0.146967564731 Rises=F Damp=F
 DIIS: error= 2.08D-02 at cycle   8 NSaved=   8.
 NSaved= 8 IEnMin= 8 EnMin= -23067.6019832691     IErMin= 8 ErrMin= 2.08D-02
 ErrMax= 2.08D-02  0.00D+00 EMaxC= 1.00D-01 BMatC= 1.59D-01 BMatP= 3.50D-01
 IDIUse=3 WtCom= 7.92D-01 WtEn= 2.08D-01
 Coeff-Com: -0.359D-01 0.467D-01-0.283D-01 0.276D-01 0.190D-01 0.160D+00
 Coeff-Com:  0.440D+00 0.371D+00
 Coeff-En:   0.000D+00 0.000D+00 0.000D+00 0.000D+00 0.000D+00 0.000D+00
 Coeff-En:   0.373D+00 0.627D+00
 Coeff:     -0.284D-01 0.370D-01-0.225D-01 0.219D-01 0.150D-01 0.127D+00
 Coeff:      0.426D+00 0.424D+00
 Gap=     0.070 Goal=   None    Shift=    0.000
 RMSDP=5.80D-04 MaxDP=2.74D-02 DE=-1.47D-01 OVMax= 1.48D-01

 Cycle   9  Pass 1  IDiag  1:
 RMSU=  2.09D-04    CP:  1.01D+00  3.25D-01  5.27D-01  4.38D-01  1.27D-01
                    CP:  5.29D-01  5.53D-01  4.26D-01
 E= -23067.7176811638     Delta-E=       -0.115697894722 Rises=F Damp=F
 DIIS: error= 3.68D-03 at cycle   9 NSaved=   9.
 NSaved= 9 IEnMin= 9 EnMin= -23067.7176811638     IErMin= 9 ErrMin= 3.68D-03
 ErrMax= 3.68D-03  0.00D+00 EMaxC= 1.00D-01 BMatC= 1.04D-02 BMatP= 1.59D-01
 IDIUse=3 WtCom= 9.63D-01 WtEn= 3.68D-02
 Coeff-Com: -0.151D-01 0.198D-01-0.110D-01 0.120D-01 0.754D-02 0.440D-01
 Coeff-Com:  0.210D+00 0.264D+00 0.468D+00
 Coeff-En:   0.000D+00 0.000D+00 0.000D+00 0.000D+00 0.000D+00 0.000D+00
 Coeff-En:   0.000D+00 0.292D-01 0.971D+00
 Coeff:     -0.145D-01 0.191D-01-0.106D-01 0.115D-01 0.726D-02 0.424D-01
 Coeff:      0.202D+00 0.256D+00 0.487D+00
 Gap=     0.065 Goal=   None    Shift=    0.000
 RMSDP=1.75D-04 MaxDP=6.39D-03 DE=-1.16D-01 OVMax= 3.54D-02

 Cycle  10  Pass 1  IDiag  1:
 RMSU=  1.21D-04    CP:  1.01D+00  3.20D-01  5.24D-01  4.43D-01  1.24D-01
                    CP:  4.97D-01  5.87D-01  4.73D-01  5.10D-01
 E= -23067.7184298369     Delta-E=       -0.000748673065 Rises=F Damp=F
 DIIS: error= 3.35D-03 at cycle  10 NSaved=  10.
 NSaved=10 IEnMin=10 EnMin= -23067.7184298369     IErMin=10 ErrMin= 3.35D-03
 ErrMax= 3.35D-03  0.00D+00 EMaxC= 1.00D-01 BMatC= 8.28D-03 BMatP= 1.04D-02
 IDIUse=3 WtCom= 9.66D-01 WtEn= 3.35D-02
 Coeff-Com: -0.621D-02 0.842D-02-0.211D-02 0.184D-02-0.183D-02-0.553D-02
 Coeff-Com:  0.741D-01 0.143D+00 0.478D+00 0.310D+00
 Coeff-En:   0.000D+00 0.000D+00 0.000D+00 0.000D+00 0.000D+00 0.000D+00
 Coeff-En:   0.000D+00 0.000D+00 0.478D+00 0.522D+00
 Coeff:     -0.600D-02 0.814D-02-0.204D-02 0.178D-02-0.177D-02-0.535D-02
 Coeff:      0.716D-01 0.139D+00 0.478D+00 0.317D+00
 Gap=     0.062 Goal=   None    Shift=    0.000
 RMSDP=1.03D-04 MaxDP=3.95D-03 DE=-7.49D-04 OVMax= 2.64D-02

 Cycle  11  Pass 1  IDiag  1:
 RMSU=  4.27D-05    CP:  1.01D+00  3.21D-01  5.27D-01  4.50D-01  1.19D-01
                    CP:  4.89D-01  5.82D-01  4.96D-01  6.52D-01  3.11D-01
 E= -23067.7245089908     Delta-E=       -0.006079153856 Rises=F Damp=F
 DIIS: error= 5.82D-04 at cycle  11 NSaved=  11.
 NSaved=11 IEnMin=11 EnMin= -23067.7245089908     IErMin=11 ErrMin= 5.82D-04
 ErrMax= 5.82D-04  0.00D+00 EMaxC= 1.00D-01 BMatC= 3.51D-04 BMatP= 8.28D-03
 IDIUse=3 WtCom= 9.94D-01 WtEn= 5.82D-03
 Coeff-Com: -0.191D-02 0.265D-02-0.418D-03 0.153D-02-0.117D-02-0.603D-02
 Coeff-Com:  0.222D-01 0.601D-01 0.252D+00 0.216D+00 0.455D+00
 Coeff-En:   0.000D+00 0.000D+00 0.000D+00 0.000D+00 0.000D+00 0.000D+00
 Coeff-En:   0.000D+00 0.000D+00 0.000D+00 0.336D-01 0.966D+00
 Coeff:     -0.190D-02 0.264D-02-0.415D-03 0.153D-02-0.117D-02-0.599D-02
 Coeff:      0.221D-01 0.598D-01 0.250D+00 0.215D+00 0.458D+00
 Gap=     0.061 Goal=   None    Shift=    0.000
 RMSDP=2.78D-05 MaxDP=1.31D-03 DE=-6.08D-03 OVMax= 4.38D-03

 Cycle  12  Pass 1  IDiag  1:
 RMSU=  1.61D-05    CP:  1.01D+00  3.21D-01  5.25D-01  4.53D-01  1.21D-01
                    CP:  4.88D-01  5.74D-01  5.00D-01  6.53D-01  3.89D-01
                    CP:  6.09D-01
 E= -23067.7247135399     Delta-E=       -0.000204549095 Rises=F Damp=F
 DIIS: error= 2.89D-04 at cycle  12 NSaved=  12.
 NSaved=12 IEnMin=12 EnMin= -23067.7247135399     IErMin=12 ErrMin= 2.89D-04
 ErrMax= 2.89D-04  0.00D+00 EMaxC= 1.00D-01 BMatC= 8.29D-05 BMatP= 3.51D-04
 IDIUse=3 WtCom= 9.97D-01 WtEn= 2.89D-03
 Coeff-Com: -0.417D-03 0.609D-03-0.162D-03 0.150D-02-0.133D-03-0.228D-02
 Coeff-Com: -0.759D-03 0.110D-01 0.774D-01 0.899D-01 0.359D+00 0.464D+00
 Coeff-En:   0.000D+00 0.000D+00 0.000D+00 0.000D+00 0.000D+00 0.000D+00
 Coeff-En:   0.000D+00 0.000D+00 0.000D+00 0.000D+00 0.215D+00 0.785D+00
 Coeff:     -0.416D-03 0.607D-03-0.161D-03 0.150D-02-0.132D-03-0.227D-02
 Coeff:     -0.757D-03 0.110D-01 0.772D-01 0.896D-01 0.359D+00 0.465D+00
 Gap=     0.061 Goal=   None    Shift=    0.000
 RMSDP=1.03D-05 MaxDP=6.32D-04 DE=-2.05D-04 OVMax= 1.24D-03

 Cycle  13  Pass 1  IDiag  1:
 RMSU=  4.89D-06    CP:  1.01D+00  3.22D-01  5.25D-01  4.53D-01  1.21D-01
                    CP:  4.90D-01  5.72D-01  4.99D-01  6.70D-01  3.92D-01
                    CP:  6.16D-01  5.62D-01
 E= -23067.7247656400     Delta-E=       -0.000052100149 Rises=F Damp=F
 DIIS: error= 6.10D-05 at cycle  13 NSaved=  13.
 NSaved=13 IEnMin=13 EnMin= -23067.7247656400     IErMin=13 ErrMin= 6.10D-05
 ErrMax= 6.10D-05  0.00D+00 EMaxC= 1.00D-01 BMatC= 3.08D-06 BMatP= 8.29D-05
 IDIUse=1 WtCom= 1.00D+00 WtEn= 0.00D+00
 Coeff-Com: -0.332D-03 0.464D-03-0.153D-03 0.597D-03 0.529D-04-0.787D-03
 Coeff-Com: -0.101D-02 0.292D-02 0.291D-01 0.352D-01 0.171D+00 0.243D+00
 Coeff-Com:  0.520D+00
 Coeff:     -0.332D-03 0.464D-03-0.153D-03 0.597D-03 0.529D-04-0.787D-03
 Coeff:     -0.101D-02 0.292D-02 0.291D-01 0.352D-01 0.171D+00 0.243D+00
 Coeff:      0.520D+00
 Gap=     0.061 Goal=   None    Shift=    0.000
 RMSDP=3.07D-06 MaxDP=2.10D-04 DE=-5.21D-05 OVMax= 5.62D-04

 Cycle  14  Pass 1  IDiag  1:
 RMSU=  1.71D-06    CP:  1.01D+00  3.22D-01  5.25D-01  4.53D-01  1.21D-01
                    CP:  4.91D-01  5.72D-01  4.98D-01  6.69D-01  3.91D-01
                    CP:  6.35D-01  5.57D-01  7.21D-01
 E= -23067.7247676941     Delta-E=       -0.000002054083 Rises=F Damp=F
 DIIS: error= 2.80D-05 at cycle  14 NSaved=  14.
 NSaved=14 IEnMin=14 EnMin= -23067.7247676941     IErMin=14 ErrMin= 2.80D-05
 ErrMax= 2.80D-05  0.00D+00 EMaxC= 1.00D-01 BMatC= 7.34D-07 BMatP= 3.08D-06
 IDIUse=1 WtCom= 1.00D+00 WtEn= 0.00D+00
 Coeff-Com: -0.157D-04 0.202D-04-0.319D-04 0.113D-03 0.561D-04-0.188D-03
 Coeff-Com: -0.535D-03 0.409D-03 0.641D-02 0.827D-02 0.597D-01 0.850D-01
 Coeff-Com:  0.336D+00 0.504D+00
 Coeff:     -0.157D-04 0.202D-04-0.319D-04 0.113D-03 0.561D-04-0.188D-03
 Coeff:     -0.535D-03 0.409D-03 0.641D-02 0.827D-02 0.597D-01 0.850D-01
 Coeff:      0.336D+00 0.504D+00
 Gap=     0.061 Goal=   None    Shift=    0.000
 RMSDP=1.30D-06 MaxDP=1.03D-04 DE=-2.05D-06 OVMax= 2.81D-04

 Cycle  15  Pass 1  IDiag  1:
 RMSU=  7.64D-07    CP:  1.01D+00  3.22D-01  5.25D-01  4.53D-01  1.21D-01
                    CP:  4.90D-01  5.72D-01  4.98D-01  6.68D-01  3.90D-01
                    CP:  6.41D-01  5.72D-01  7.53D-01  5.02D-01
 E= -23067.7247681130     Delta-E=       -0.000000418935 Rises=F Damp=F
 DIIS: error= 1.24D-05 at cycle  15 NSaved=  15.
 NSaved=15 IEnMin=15 EnMin= -23067.7247681130     IErMin=15 ErrMin= 1.24D-05
 ErrMax= 1.24D-05  0.00D+00 EMaxC= 1.00D-01 BMatC= 1.00D-07 BMatP= 7.34D-07
 IDIUse=1 WtCom= 1.00D+00 WtEn= 0.00D+00
 Coeff-Com:  0.159D-04-0.227D-04-0.108D-04 0.535D-04 0.306D-04-0.123D-03
 Coeff-Com: -0.284D-03 0.206D-03 0.339D-02 0.440D-02 0.350D-01 0.493D-01
 Coeff-Com:  0.215D+00 0.345D+00 0.348D+00
 Coeff:      0.159D-04-0.227D-04-0.108D-04 0.535D-04 0.306D-04-0.123D-03
 Coeff:     -0.284D-03 0.206D-03 0.339D-02 0.440D-02 0.350D-01 0.493D-01
 Coeff:      0.215D+00 0.345D+00 0.348D+00
 Gap=     0.061 Goal=   None    Shift=    0.000
 RMSDP=7.68D-07 MaxDP=4.43D-05 DE=-4.19D-07 OVMax= 2.25D-04

 Cycle  16  Pass 1  IDiag  1:
 RMSU=  3.30D-07    CP:  1.01D+00  3.22D-01  5.25D-01  4.53D-01  1.21D-01
                    CP:  4.90D-01  5.73D-01  4.99D-01  6.68D-01  3.90D-01
                    CP:  6.41D-01  5.71D-01  7.44D-01  6.54D-01  1.81D-01
 E= -23067.7247681830     Delta-E=       -0.000000069991 Rises=F Damp=F
 DIIS: error= 6.01D-06 at cycle  16 NSaved=  16.
 NSaved=16 IEnMin=16 EnMin= -23067.7247681830     IErMin=16 ErrMin= 6.01D-06
 ErrMax= 6.01D-06  0.00D+00 EMaxC= 1.00D-01 BMatC= 2.57D-08 BMatP= 1.00D-07
 IDIUse=1 WtCom= 1.00D+00 WtEn= 0.00D+00
 Coeff-Com:  0.152D-04-0.211D-04 0.670D-06 0.104D-04 0.897D-05-0.658D-04
 Coeff-Com: -0.438D-04 0.518D-04 0.113D-02 0.143D-02 0.126D-01 0.172D-01
 Coeff-Com:  0.885D-01 0.141D+00 0.296D+00 0.442D+00
 Coeff:      0.152D-04-0.211D-04 0.670D-06 0.104D-04 0.897D-05-0.658D-04
 Coeff:     -0.438D-04 0.518D-04 0.113D-02 0.143D-02 0.126D-01 0.172D-01
 Coeff:      0.885D-01 0.141D+00 0.296D+00 0.442D+00
 Gap=     0.061 Goal=   None    Shift=    0.000
 RMSDP=3.47D-07 MaxDP=1.94D-05 DE=-7.00D-08 OVMax= 9.74D-05

 Cycle  17  Pass 1  IDiag  1:
 RMSU=  1.37D-07    CP:  1.01D+00  3.22D-01  5.25D-01  4.53D-01  1.21D-01
                    CP:  4.90D-01  5.73D-01  4.99D-01  6.68D-01  3.90D-01
                    CP:  6.42D-01  5.68D-01  7.52D-01  5.87D-01  4.44D-01
                    CP:  4.25D-01
 E= -23067.7247682054     Delta-E=       -0.000000022399 Rises=F Damp=F
 DIIS: error= 1.40D-06 at cycle  17 NSaved=  17.
 NSaved=17 IEnMin=17 EnMin= -23067.7247682054     IErMin=17 ErrMin= 1.40D-06
 ErrMax= 1.40D-06  0.00D+00 EMaxC= 1.00D-01 BMatC= 3.45D-09 BMatP= 2.57D-08
 IDIUse=1 WtCom= 1.00D+00 WtEn= 0.00D+00
 Coeff-Com:  0.227D-05-0.325D-05 0.101D-05-0.240D-05 0.473D-05-0.305D-04
 Coeff-Com:  0.194D-04-0.158D-04 0.315D-03 0.402D-03 0.376D-02 0.475D-02
 Coeff-Com:  0.316D-01 0.473D-01 0.144D+00 0.306D+00 0.462D+00
 Coeff:      0.227D-05-0.325D-05 0.101D-05-0.240D-05 0.473D-05-0.305D-04
 Coeff:      0.194D-04-0.158D-04 0.315D-03 0.402D-03 0.376D-02 0.475D-02
 Coeff:      0.316D-01 0.473D-01 0.144D+00 0.306D+00 0.462D+00
 Gap=     0.061 Goal=   None    Shift=    0.000
 RMSDP=9.35D-08 MaxDP=4.70D-06 DE=-2.24D-08 OVMax= 1.87D-05

 Cycle  18  Pass 1  IDiag  1:
 RMSU=  4.43D-08    CP:  1.01D+00  3.22D-01  5.25D-01  4.53D-01  1.21D-01
                    CP:  4.90D-01  5.73D-01  4.99D-01  6.68D-01  3.90D-01
                    CP:  6.41D-01  5.69D-01  7.52D-01  5.92D-01  4.11D-01
                    CP:  5.29D-01  5.78D-01
 E= -23067.7247682077     Delta-E=       -0.000000002248 Rises=F Damp=F
 DIIS: error= 5.09D-07 at cycle  18 NSaved=  18.
 NSaved=18 IEnMin=18 EnMin= -23067.7247682077     IErMin=18 ErrMin= 5.09D-07
 ErrMax= 5.09D-07  0.00D+00 EMaxC= 1.00D-01 BMatC= 2.42D-10 BMatP= 3.45D-09
 IDIUse=1 WtCom= 1.00D+00 WtEn= 0.00D+00
 Coeff-Com:  0.605D-06-0.881D-06 0.632D-06-0.190D-05 0.232D-05-0.153D-04
 Coeff-Com:  0.136D-04-0.141D-04 0.130D-03 0.174D-03 0.156D-02 0.186D-02
 Coeff-Com:  0.138D-01 0.209D-01 0.719D-01 0.165D+00 0.298D+00 0.427D+00
 Coeff:      0.605D-06-0.881D-06 0.632D-06-0.190D-05 0.232D-05-0.153D-04
 Coeff:      0.136D-04-0.141D-04 0.130D-03 0.174D-03 0.156D-02 0.186D-02
 Coeff:      0.138D-01 0.209D-01 0.719D-01 0.165D+00 0.298D+00 0.427D+00
 Gap=     0.061 Goal=   None    Shift=    0.000
 RMSDP=4.12D-08 MaxDP=2.06D-06 DE=-2.25D-09 OVMax= 1.01D-05

 Cycle  19  Pass 1  IDiag  1:
 RMSU=  3.04D-08    CP:  1.01D+00  3.22D-01  5.25D-01  4.53D-01  1.21D-01
                    CP:  4.90D-01  5.73D-01  4.99D-01  6.68D-01  3.90D-01
                    CP:  6.41D-01  5.69D-01  7.52D-01  5.95D-01  4.04D-01
                    CP:  5.36D-01  6.23D-01  4.37D-01
 E= -23067.7247682089     Delta-E=       -0.000000001281 Rises=F Damp=F
 DIIS: error= 5.68D-07 at cycle  19 NSaved=  19.
 NSaved=19 IEnMin=19 EnMin= -23067.7247682089     IErMin=18 ErrMin= 5.09D-07
 ErrMax= 5.68D-07  0.00D+00 EMaxC= 1.00D-01 BMatC= 2.58D-10 BMatP= 2.42D-10
 IDIUse=1 WtCom= 1.00D+00 WtEn= 0.00D+00
 Coeff-Com: -0.849D-07 0.123D-06 0.303D-06-0.878D-06 0.380D-06-0.377D-05
 Coeff-Com:  0.562D-05-0.796D-05 0.107D-04 0.225D-04 0.108D-03 0.224D-04
 Coeff-Com:  0.153D-02 0.278D-02 0.172D-01 0.485D-01 0.124D+00 0.455D+00
 Coeff-Com:  0.351D+00
 Coeff:     -0.849D-07 0.123D-06 0.303D-06-0.878D-06 0.380D-06-0.377D-05
 Coeff:      0.562D-05-0.796D-05 0.107D-04 0.225D-04 0.108D-03 0.224D-04
 Coeff:      0.153D-02 0.278D-02 0.172D-01 0.485D-01 0.124D+00 0.455D+00
 Coeff:      0.351D+00
 Gap=     0.061 Goal=   None    Shift=    0.000
 RMSDP=2.15D-08 MaxDP=9.99D-07 DE=-1.28D-09 OVMax= 4.72D-06

 Cycle  20  Pass 1  IDiag  1:
 RMSU=  5.06D-09    CP:  1.01D+00  3.22D-01  5.25D-01  4.53D-01  1.21D-01
                    CP:  4.90D-01  5.73D-01  4.99D-01  6.68D-01  3.90D-01
                    CP:  6.41D-01  5.69D-01  7.52D-01  5.95D-01  4.10D-01
                    CP:  5.29D-01  6.38D-01  6.45D-01  4.28D-01
 E= -23067.7247682089     Delta-E=        0.000000000007 Rises=F Damp=F
 DIIS: error= 5.66D-08 at cycle  20 NSaved=  20.
 NSaved=20 IEnMin=19 EnMin= -23067.7247682089     IErMin=20 ErrMin= 5.66D-08
 ErrMax= 5.66D-08  0.00D+00 EMaxC= 1.00D-01 BMatC= 3.81D-12 BMatP= 2.42D-10
 IDIUse=1 WtCom= 1.00D+00 WtEn= 0.00D+00
 Coeff-Com: -0.759D-07 0.110D-06 0.161D-06-0.448D-06 0.140D-06-0.177D-05
 Coeff-Com:  0.255D-05-0.381D-05 0.294D-05 0.673D-05 0.167D-04-0.265D-04
 Coeff-Com:  0.461D-03 0.106D-02 0.795D-02 0.222D-01 0.579D-01 0.249D+00
 Coeff-Com:  0.208D+00 0.454D+00
 Coeff:     -0.759D-07 0.110D-06 0.161D-06-0.448D-06 0.140D-06-0.177D-05
 Coeff:      0.255D-05-0.381D-05 0.294D-05 0.673D-05 0.167D-04-0.265D-04
 Coeff:      0.461D-03 0.106D-02 0.795D-02 0.222D-01 0.579D-01 0.249D+00
 Coeff:      0.208D+00 0.454D+00
 Gap=     0.061 Goal=   None    Shift=    0.000
 RMSDP=6.20D-09 MaxDP=2.82D-07 DE= 7.28D-12 OVMax= 1.60D-06

 Error on total polarization charges =  0.02354
 SCF Done:  E(RPBE-PBE) =  -23067.7247682     A.U. after   20 cycles
            NFock= 20  Conv=0.62D-08     -V/T= 2.0142
 KE= 2.274374787815D+04 PE=-6.341002690152D+04 EE= 1.328241332070D+04
 Leave Link  502 at Sat Oct 30 09:19:02 2021, MaxMem=  2013265920 cpu:      4096.0
 (Enter /scr/programas/g09/l801.exe)
 Range of M.O.s used for correlation:     1   574
 NBasis=   574 NAE=   121 NBE=   121 NFC=     0 NFV=     0
 NROrb=    574 NOA=   121 NOB=   121 NVA=   453 NVB=   453

 **** Warning!!: The largest alpha MO coefficient is  0.49523469D+02


 **** Warning!!: The smallest alpha delta epsilon is  0.60962646D-01

 Leave Link  801 at Sat Oct 30 09:19:02 2021, MaxMem=  2013265920 cpu:         0.1
 (Enter /scr/programas/g09/l1002.exe)
 Minotr:  Closed shell wavefunction.
 NEqPCM:  Using equilibrium solvation (IEInf=0, Eps=  78.3553, EpsInf=   1.7778)
          Direct CPHF calculation.
          Differentiating once with respect to magnetic field using GIAOs.
          Electric field/nuclear overlap derivatives assumed to be zero.
          Requested convergence is 1.0D-08 RMS, and 1.0D-07 maximum.
          Secondary convergence is 1.0D-12 RMS, and 1.0D-12 maximum.
          NewPWx=T KeepS1=F KeepF1=F KeepIn=T MapXYZ=F SortEE=F KeepMc=T.
          MDV=    2013265222 using IRadAn=       2.
 Defaulting to unpruned grid for atomic number  78.
 Generate precomputed XC quadrature information.
          Solving linear equations simultaneously, MaxMat=       0.
 FoFJK:  IHMeth= 1 ICntrl=    6127 DoSepK=F KAlg= 0 I1Cent=   0 FoldK=F
 IRaf=         1 NMat=   1 IRICut=       1 DoRegI=T DoRafI=F ISym2E= 0.
 Defaulting to unpruned grid for atomic number  78.
 Defaulting to unpruned grid for atomic number  78.
 Defaulting to unpruned grid for atomic number  78.
 Defaulting to unpruned grid for atomic number  78.
          There are     3 degrees of freedom in the 1st order CPHF.  IDoFFX=0 NUNeed=     3.
      3 vectors produced by pass  0 Test12= 1.83D-12 3.33D-08 XBig12= 5.96D+01 2.97D+00.
 AX will form     3 AO Fock derivatives at one time.
 InvSVY:  IOpt=1 It=  1 EMax= 0.00D+00
 Solved reduced A of dimension     3 with     3 vectors.
 Calculating GIAO nuclear magnetic shielding tensors.
 SCF GIAO Magnetic shielding tensor (ppm):
      1  Pt   Isotropic = -1502.5640   Anisotropy =  1259.0763
   XX= -2794.5672   YX=   -64.2816   ZX=    83.2525
   XY=   -45.1129   YY=  -667.4874   ZY=   -30.8581
   XZ=  -139.4628   YZ=   -37.2041   ZZ= -1045.6374
   Eigenvalues: -2796.4523 -1048.0599  -663.1798
      2  N    Isotropic =  -211.1111   Anisotropy =   331.1586
   XX=  -190.5335   YX=   148.2282   ZX=   143.5447
   XY=   152.2128   YY=  -225.4208   ZY=    12.4782
   XZ=   146.4292   YZ=    14.3309   ZZ=  -217.3789
   Eigenvalues:  -408.3621  -234.6325     9.6613
      3  O    Isotropic =  -406.5497   Anisotropy =   554.7689
   XX=  -372.1631   YX=   309.5768   ZX=   221.3869
   XY=   206.6074   YY=  -428.1186   ZY=    47.3634
   XZ=   309.0334   YZ=   -90.1530   ZZ=  -419.3672
   Eigenvalues:  -780.4757  -402.4696   -36.7037
      4  O    Isotropic =  -406.4535   Anisotropy =   513.8119
   XX=  -374.8201   YX=   197.5084   ZX=   288.4917
   XY=   305.3549   YY=  -432.2147   ZY=   -92.8135
   XZ=   188.0028   YZ=    38.2857   ZZ=  -412.3255
   Eigenvalues:  -760.9492  -394.4990   -63.9122
      5  N    Isotropic =  -209.9279   Anisotropy =   328.5432
   XX=  -228.4870   YX=  -127.3130   ZX=   160.1988
   XY=  -127.9766   YY=  -219.2640   ZY=   -28.8883
   XZ=   158.5360   YZ=   -31.9014   ZZ=  -182.0328
   Eigenvalues:  -404.5286  -234.3560     9.1009
      6  O    Isotropic =  -406.8060   Anisotropy =   499.7143
   XX=  -434.4218   YX=  -149.6528   ZX=   311.4011
   XY=  -279.6811   YY=  -414.8813   ZY=    63.5484
   XZ=   208.8397   YZ=   -60.3202   ZZ=  -371.1149
   Eigenvalues:  -751.0284  -395.7265   -73.6631
      7  O    Isotropic =  -407.9115   Anisotropy =   539.6213
   XX=  -430.0921   YX=  -279.3031   ZX=   250.0527
   XY=  -147.6883   YY=  -410.8097   ZY=   -64.8344
   XZ=   331.3453   YZ=    57.6140   ZZ=  -382.8328
   Eigenvalues:  -771.0892  -404.4813   -48.1640
      8  N    Isotropic =  -211.1242   Anisotropy =   331.1797
   XX=  -190.3884   YX=   148.1862   ZX=   143.6188
   XY=   152.1703   YY=  -225.5463   ZY=    12.3813
   XZ=   146.4687   YZ=    14.2573   ZZ=  -217.4377
   Eigenvalues:  -408.3938  -234.6410     9.6623
      9  N    Isotropic =  -209.9172   Anisotropy =   328.4993
   XX=  -227.6569   YX=  -127.3388   ZX=   160.3230
   XY=  -127.9602   YY=  -219.5373   ZY=   -28.5097
   XZ=   158.6299   YZ=   -31.5119   ZZ=  -182.5575
   Eigenvalues:  -404.4763  -234.3577     9.0823
     10  O    Isotropic =  -406.8717   Anisotropy =   499.8502
   XX=  -433.0606   YX=  -149.7543   ZX=   311.5439
   XY=  -279.6317   YY=  -415.4131   ZY=    64.4168
   XZ=   209.1898   YZ=   -59.7382   ZZ=  -372.1414
   Eigenvalues:  -751.2201  -395.7568   -73.6382
     11  O    Isotropic =  -407.9251   Anisotropy =   539.8185
   XX=  -428.7094   YX=  -279.3009   ZX=   250.4065
   XY=  -147.8781   YY=  -411.3451   ZY=   -64.3325
   XZ=   331.3789   YZ=    58.4857   ZZ=  -383.7207
   Eigenvalues:  -771.2431  -404.4861   -48.0461
     12  O    Isotropic =  -406.5144   Anisotropy =   513.7983
   XX=  -374.6668   YX=   197.3820   ZX=   288.6350
   XY=   305.2353   YY=  -432.3695   ZY=   -93.0754
   XZ=   188.1644   YZ=    38.0975   ZZ=  -412.5068
   Eigenvalues:  -761.1085  -394.4524   -63.9821
     13  O    Isotropic =  -406.5552   Anisotropy =   554.9047
   XX=  -371.8284   YX=   309.4464   ZX=   221.6071
   XY=   206.5207   YY=  -428.2970   ZY=    47.2497
   XZ=   309.1159   YZ=   -90.2828   ZZ=  -419.5403
   Eigenvalues:  -780.5184  -402.5286   -36.6187
     14  Br   Isotropic =  1572.2301   Anisotropy =  2156.8066
   XX=  3008.1309   YX=    35.7364   ZX=  -308.2950
   XY=    31.9070   YY=  1063.0753   ZY=    83.6754
   XZ=   190.6787   YZ=   110.2764   ZZ=   645.4841
   Eigenvalues:   622.3063  1084.2828  3010.1012
     15  Br   Isotropic =  1572.1308   Anisotropy =  2156.5824
   XX=  3007.8743   YX=    35.5923   ZX=  -308.6073
   XY=    31.7247   YY=  1063.1919   ZY=    83.5790
   XZ=   190.4698   YZ=   109.8780   ZZ=   645.3261
   Eigenvalues:   622.2538  1084.2862  3009.8524
 End of Minotr F.D. properties file   721 does not exist.
 End of Minotr F.D. properties file   722 does not exist.
 End of Minotr F.D. properties file   788 does not exist.
 Leave Link 1002 at Sat Oct 30 09:32:05 2021, MaxMem=  2013265920 cpu:      3115.0
 (Enter /scr/programas/g09/l601.exe)
 Copying SCF densities to generalized density rwf, IOpCl= 0 IROHF=0.

 **********************************************************************

            Population analysis using the SCF density.

 **********************************************************************

 Orbital symmetries:
       Occupied  (A) (A) (A) (A) (A) (A) (A) (A) (A) (A) (A) (A)
                 (A) (A) (A) (A) (A) (A) (A) (A) (A) (A) (A) (A)
                 (A) (A) (A) (A) (A) (A) (A) (A) (A) (A) (A) (A)
                 (A) (A) (A) (A) (A) (A) (A) (A) (A) (A) (A) (A)
                 (A) (A) (A) (A) (A) (A) (A) (A) (A) (A) (A) (A)
                 (A) (A) (A) (A) (A) (A) (A) (A) (A) (A) (A) (A)
                 (A) (A) (A) (A) (A) (A) (A) (A) (A) (A) (A) (A)
                 (A) (A) (A) (A) (A) (A) (A) (A) (A) (A) (A) (A)
                 (A) (A) (A) (A) (A) (A) (A) (A) (A) (A) (A) (A)
                 (A) (A) (A) (A) (A) (A) (A) (A) (A) (A) (A) (A)
                 (A)
       Virtual   (A) (A) (A) (A) (A) (A) (A) (A) (A) (A) (A) (A)
                 (A) (A) (A) (A) (A) (A) (A) (A) (A) (A) (A) (A)
                 (A) (A) (A) (A) (A) (A) (A) (A) (A) (A) (A) (A)
                 (A) (A) (A) (A) (A) (A) (A) (A) (A) (A) (A) (A)
                 (A) (A) (A) (A) (A) (A) (A) (A) (A) (A) (A) (A)
                 (A) (A) (A) (A) (A) (A) (A) (A) (A) (A) (A) (A)
                 (A) (A) (A) (A) (A) (A) (A) (A) (A) (A) (A) (A)
                 (A) (A) (A) (A) (A) (A) (A) (A) (A) (A) (A) (A)
                 (A) (A) (A) (A) (A) (A) (A) (A) (A) (A) (A) (A)
                 (A) (A) (A) (A) (A) (A) (A) (A) (A) (A) (A) (A)
                 (A) (A) (A) (A) (A) (A) (A) (A) (A) (A) (A) (A)
                 (A) (A) (A) (A) (A) (A) (A) (A) (A) (A) (A) (A)
                 (A) (A) (A) (A) (A) (A) (A) (A) (A) (A) (A) (A)
                 (A) (A) (A) (A) (A) (A) (A) (A) (A) (A) (A) (A)
                 (A) (A) (A) (A) (A) (A) (A) (A) (A) (A) (A) (A)
                 (A) (A) (A) (A) (A) (A) (A) (A) (A) (A) (A) (A)
                 (A) (A) (A) (A) (A) (A) (A) (A) (A) (A) (A) (A)
                 (A) (A) (A) (A) (A) (A) (A) (A) (A) (A) (A) (A)
                 (A) (A) (A) (A) (A) (A) (A) (A) (A) (A) (A) (A)
                 (A) (A) (A) (A) (A) (A) (A) (A) (A) (A) (A) (A)
                 (A) (A) (A) (A) (A) (A) (A) (A) (A) (A) (A) (A)
                 (A) (A) (A) (A) (A) (A) (A) (A) (A) (A) (A) (A)
                 (A) (A) (A) (A) (A) (A) (A) (A) (A) (A) (A) (A)
                 (A) (A) (A) (A) (A) (A) (A) (A) (A) (A) (A) (A)
                 (A) (A) (A) (A) (A) (A) (A) (A) (A) (A) (A) (A)
                 (A) (A) (A) (A) (A) (A) (A) (A) (A) (A) (A) (A)
                 (A) (A) (A) (A) (A) (A) (A) (A) (A) (A) (A) (A)
                 (A) (A) (A) (A) (A) (A) (A) (A) (A) (A) (A) (A)
                 (A) (A) (A) (A) (A) (A) (A) (A) (A) (A) (A) (A)
                 (A) (A) (A) (A) (A) (A) (A) (A) (A) (A) (A) (A)
                 (A) (A) (A) (A) (A) (A) (A) (A) (A) (A) (A) (A)
                 (A) (A) (A) (A) (A) (A) (A) (A) (A) (A) (A) (A)
                 (A) (A) (A) (A) (A) (A) (A) (A) (A) (A) (A) (A)
                 (A) (A) (A) (A) (A) (A) (A) (A) (A) (A) (A) (A)
                 (A) (A) (A) (A) (A) (A) (A) (A) (A) (A) (A) (A)
                 (A) (A) (A) (A) (A) (A) (A) (A) (A) (A) (A) (A)
                 (A) (A) (A) (A) (A) (A) (A) (A) (A) (A) (A) (A)
                 (A) (A) (A) (A) (A) (A) (A) (A) (A)
 The electronic state is 1-A.
 Alpha  occ. eigenvalues -- **********-478.57920-478.57919-427.60038-414.92961
 Alpha  occ. eigenvalues -- -414.92945-414.92938 -99.98068 -92.13746 -92.13728
 Alpha  occ. eigenvalues --  -92.13698 -79.09661 -79.09634 -79.09526 -79.09504
 Alpha  occ. eigenvalues --  -79.09492 -61.49763 -61.49763 -55.68236 -55.68236
 Alpha  occ. eigenvalues --  -55.67956 -55.67956 -55.67950 -55.67950 -20.89556
 Alpha  occ. eigenvalues --  -18.78068 -18.78067 -18.78013 -18.78011 -18.77889
 Alpha  occ. eigenvalues --  -18.77889 -18.77816 -18.77814 -17.46038 -17.45999
 Alpha  occ. eigenvalues --  -17.45948 -14.17091 -14.17091 -14.17016 -14.17013
 Alpha  occ. eigenvalues --  -11.64462 -11.64405 -11.63984 -11.63924 -11.63893
 Alpha  occ. eigenvalues --   -8.32620  -8.32620  -6.23472  -6.23472  -6.22654
 Alpha  occ. eigenvalues --   -6.22654  -6.22641  -6.22641  -3.19282  -3.19254
 Alpha  occ. eigenvalues --   -3.19206  -3.18995  -3.18961  -3.18950  -3.18624
 Alpha  occ. eigenvalues --   -2.92368  -2.44411  -2.44411  -2.44206  -2.44205
 Alpha  occ. eigenvalues --   -2.44196  -2.44196  -2.43594  -2.43593  -2.43593
 Alpha  occ. eigenvalues --   -2.43593  -1.86433  -1.86318  -1.86220  -1.12324
 Alpha  occ. eigenvalues --   -1.12121  -1.12027  -1.11993  -0.96001  -0.95805
 Alpha  occ. eigenvalues --   -0.95746  -0.95584  -0.65917  -0.65211  -0.57982
 Alpha  occ. eigenvalues --   -0.57763  -0.56034  -0.55954  -0.48486  -0.47511
 Alpha  occ. eigenvalues --   -0.47163  -0.46712  -0.46532  -0.45496  -0.45355
 Alpha  occ. eigenvalues --   -0.45005  -0.44889  -0.44795  -0.44776  -0.44610
 Alpha  occ. eigenvalues --   -0.35824  -0.32771  -0.32492  -0.31254  -0.28773
 Alpha  occ. eigenvalues --   -0.28055  -0.27829  -0.27594  -0.26772  -0.26644
 Alpha  occ. eigenvalues --   -0.24312  -0.24259  -0.24191  -0.23790  -0.23258
 Alpha  occ. eigenvalues --   -0.22798  -0.22287  -0.21727  -0.21312  -0.20589
 Alpha  occ. eigenvalues --   -0.19866
 Alpha virt. eigenvalues --   -0.13770  -0.10497  -0.09194  -0.08680  -0.08097
 Alpha virt. eigenvalues --   -0.07708   0.00468   0.00896   0.01803   0.01838
 Alpha virt. eigenvalues --    0.03004   0.03019   0.04028   0.05375   0.05946
 Alpha virt. eigenvalues --    0.06594   0.08176   0.08473   0.09123   0.11300
 Alpha virt. eigenvalues --    0.11419   0.13816   0.13997   0.16446   0.16517
 Alpha virt. eigenvalues --    0.17412   0.17580   0.18268   0.19117   0.19278
 Alpha virt. eigenvalues --    0.20287   0.23378   0.23406   0.23477   0.23834
 Alpha virt. eigenvalues --    0.24846   0.24868   0.26254   0.26609   0.26613
 Alpha virt. eigenvalues --    0.27791   0.28510   0.28727   0.28894   0.29449
 Alpha virt. eigenvalues --    0.31004   0.32496   0.34667   0.35010   0.36333
 Alpha virt. eigenvalues --    0.36848   0.36970   0.37635   0.38086   0.38625
 Alpha virt. eigenvalues --    0.38821   0.38985   0.40535   0.41316   0.42494
 Alpha virt. eigenvalues --    0.42672   0.43579   0.44998   0.45033   0.47937
 Alpha virt. eigenvalues --    0.48386   0.49552   0.51426   0.51880   0.52685
 Alpha virt. eigenvalues --    0.53279   0.53395   0.55208   0.55358   0.55661
 Alpha virt. eigenvalues --    0.56117   0.56368   0.56658   0.56778   0.58899
 Alpha virt. eigenvalues --    0.59763   0.60207   0.61940   0.62698   0.63974
 Alpha virt. eigenvalues --    0.64086   0.64486   0.64597   0.65317   0.66181
 Alpha virt. eigenvalues --    0.66198   0.66513   0.67260   0.68616   0.68726
 Alpha virt. eigenvalues --    0.69229   0.70489   0.70929   0.71677   0.72216
 Alpha virt. eigenvalues --    0.72838   0.72839   0.73907   0.75065   0.75611
 Alpha virt. eigenvalues --    0.77271   0.77866   0.78618   0.80339   0.80893
 Alpha virt. eigenvalues --    0.81900   0.84355   0.84758   0.85316   0.86830
 Alpha virt. eigenvalues --    0.88226   0.88472   0.89328   0.90003   0.90547
 Alpha virt. eigenvalues --    0.90861   0.91980   0.93269   0.93716   0.93797
 Alpha virt. eigenvalues --    0.94148   0.94323   0.95825   0.98775   0.99228
 Alpha virt. eigenvalues --    0.99476   0.99806   0.99981   1.01768   1.02714
 Alpha virt. eigenvalues --    1.03427   1.03821   1.04779   1.05980   1.06361
 Alpha virt. eigenvalues --    1.07729   1.07959   1.09144   1.09302   1.09514
 Alpha virt. eigenvalues --    1.12857   1.13571   1.14015   1.15536   1.15664
 Alpha virt. eigenvalues --    1.16695   1.17359   1.17642   1.18449   1.19353
 Alpha virt. eigenvalues --    1.20268   1.20454   1.21214   1.22343   1.23822
 Alpha virt. eigenvalues --    1.23906   1.24982   1.25491   1.25532   1.26187
 Alpha virt. eigenvalues --    1.28441   1.28514   1.29106   1.29393   1.29912
 Alpha virt. eigenvalues --    1.32099   1.32899   1.33507   1.35686   1.37010
 Alpha virt. eigenvalues --    1.37332   1.38218   1.38432   1.39489   1.39886
 Alpha virt. eigenvalues --    1.41349   1.41604   1.42578   1.44362   1.46082
 Alpha virt. eigenvalues --    1.46345   1.47759   1.48805   1.49551   1.51467
 Alpha virt. eigenvalues --    1.52591   1.53888   1.54114   1.55459   1.57674
 Alpha virt. eigenvalues --    1.58175   1.58766   1.61979   1.63373   1.65127
 Alpha virt. eigenvalues --    1.68029   1.68939   1.69582   1.73353   1.73369
 Alpha virt. eigenvalues --    1.74311   1.75839   1.78169   1.78216   1.79239
 Alpha virt. eigenvalues --    1.80010   1.82309   1.84395   1.85410   1.86777
 Alpha virt. eigenvalues --    1.90479   1.91088   1.91560   1.93725   1.94959
 Alpha virt. eigenvalues --    1.97203   1.98303   2.00977   2.06854   2.13114
 Alpha virt. eigenvalues --    2.36817   2.37506   2.37737   2.38517   2.38653
 Alpha virt. eigenvalues --    2.42998   2.43008   2.44165   2.44927   2.46529
 Alpha virt. eigenvalues --    2.46735   2.47417   2.48578   2.49774   2.50833
 Alpha virt. eigenvalues --    2.51298   2.54844   2.55405   2.55669   2.56183
 Alpha virt. eigenvalues --    2.56342   2.56700   2.58196   2.59263   2.60857
 Alpha virt. eigenvalues --    2.63332   2.63826   2.64514   2.65217   2.66686
 Alpha virt. eigenvalues --    2.67466   2.68892   2.69524   2.69680   2.72072
 Alpha virt. eigenvalues --    2.72813   2.72905   2.72938   2.77384   2.83908
 Alpha virt. eigenvalues --    2.84970   2.85368   2.86258   2.90166   2.92118
 Alpha virt. eigenvalues --    2.97880   3.01649   3.02280   3.10270   3.11948
 Alpha virt. eigenvalues --    3.13436   3.16964   3.19687   3.20557   3.21181
 Alpha virt. eigenvalues --    3.22625   3.22638   3.24390   3.24673   3.27052
 Alpha virt. eigenvalues --    3.34797   3.37132   3.42969   3.44483   3.47927
 Alpha virt. eigenvalues --    3.50904   3.53535   3.60128   3.61005   3.63035
 Alpha virt. eigenvalues --    3.67657   3.72575   3.74783   3.79996   3.83954
 Alpha virt. eigenvalues --    3.84684   3.85569   3.86674   3.88633   3.89880
 Alpha virt. eigenvalues --    3.90871   3.91447   3.92784   3.94528   3.99696
 Alpha virt. eigenvalues --    3.99905   4.02196   4.06145   4.08474   4.09606
 Alpha virt. eigenvalues --    4.09988   4.10848   4.12866   4.12993   4.32873
 Alpha virt. eigenvalues --    4.33310   4.33527   4.34000   4.34866   4.34894
 Alpha virt. eigenvalues --    4.35069   4.36339   4.37073   4.38613   4.38899
 Alpha virt. eigenvalues --    4.39648   4.40569   4.40630   4.41109   4.41311
 Alpha virt. eigenvalues --    4.44531   4.45810   4.45835   4.49430   4.50216
 Alpha virt. eigenvalues --    4.50772   4.52005   4.53144   4.54031   4.58422
 Alpha virt. eigenvalues --    5.41901   5.42447   5.44807   5.52076   5.75989
 Alpha virt. eigenvalues --    5.85133   5.87287   5.91127   6.01040   6.01783
 Alpha virt. eigenvalues --    6.06708   6.13656   6.14416   6.15715   6.17386
 Alpha virt. eigenvalues --    6.34290   6.37024   6.87654   6.91854   6.94105
 Alpha virt. eigenvalues --    6.97333   6.99734   7.01437   7.04149   7.06100
 Alpha virt. eigenvalues --    8.44209   8.45191   8.45315   8.46268   8.47659
 Alpha virt. eigenvalues --    8.51264   8.56202   8.62934   8.67209   8.90327
 Alpha virt. eigenvalues --    9.83398   9.94576   9.94875  10.11631  10.14550
 Alpha virt. eigenvalues --   14.14444  14.19293  20.29722  20.30304  20.31707
 Alpha virt. eigenvalues --   20.32285  20.43751  20.45063  20.94955  21.05666
 Alpha virt. eigenvalues --   21.07365  22.98270  23.00832  23.01641  23.09054
 Alpha virt. eigenvalues --   25.99827  30.15670  30.21637  30.24409  30.24703
 Alpha virt. eigenvalues --   30.27472  30.31735  30.32544  30.35105  42.86831
 Alpha virt. eigenvalues --   42.93311  42.94293  43.03759  43.05934  65.19200
 Alpha virt. eigenvalues --   65.23625  82.03940  86.07622  86.15546  86.17383
 Alpha virt. eigenvalues --  112.74425 112.74841 112.75631 112.76017 112.84428
 Alpha virt. eigenvalues --  112.84829 123.12564 123.14726 123.16197 123.25220
 Alpha virt. eigenvalues --  162.91410 162.97725 163.00463 163.01154 163.03872
 Alpha virt. eigenvalues --  163.08510 163.09401 163.11770 257.15468 282.52674
 Alpha virt. eigenvalues --  282.56607 428.68217 428.74354 428.75767 772.83890
 Alpha virt. eigenvalues -- 1043.684981043.719282068.446055495.253025634.56710
 Alpha virt. eigenvalues -- 5634.61290********************
          Condensed to atoms (all electrons):
               1          2          3          4          5          6
     1  Pt  78.027906  -0.041546   0.050699   0.042105  -0.041005   0.043814
     2  N   -0.041546   5.964112   0.582899   0.581767   0.016912  -0.000728
     3  O    0.050699   0.582899   7.564385  -0.080066  -0.002400   0.000148
     4  O    0.042105   0.581767  -0.080066   7.552512  -0.000548  -0.000015
     5  N   -0.041005   0.016912  -0.002400  -0.000548   5.969454   0.580650
     6  O    0.043814  -0.000728   0.000148  -0.000015   0.580650   7.554726
     7  O    0.052345  -0.003672  -0.005480   0.000059   0.579786  -0.080501
     8  N   -0.041484  -0.009826   0.000200   0.000242   0.015411  -0.002049
     9  N   -0.041096   0.015382  -0.001310  -0.000928  -0.009637   0.000237
    10  O    0.043778  -0.002027   0.000671  -0.005273   0.000237   0.000000
    11  O    0.052332  -0.001805  -0.000005   0.000912   0.000208  -0.000004
    12  O    0.042112   0.000242  -0.000004   0.000000  -0.000931  -0.005261
    13  O    0.050640   0.000200   0.000000  -0.000004  -0.001311   0.000669
    14  Br   0.048425  -0.013826  -0.007169  -0.001013  -0.015271  -0.000822
    15  Br   0.048588  -0.017379  -0.001527  -0.008071  -0.018511  -0.008969
               7          8          9         10         11         12
     1  Pt   0.052345  -0.041484  -0.041096   0.043778   0.052332   0.042112
     2  N   -0.003672  -0.009826   0.015382  -0.002027  -0.001805   0.000242
     3  O   -0.005480   0.000200  -0.001310   0.000671  -0.000005  -0.000004
     4  O    0.000059   0.000242  -0.000928  -0.005273   0.000912   0.000000
     5  N    0.579786   0.015411  -0.009637   0.000237   0.000208  -0.000931
     6  O   -0.080501  -0.002049   0.000237   0.000000  -0.000004  -0.005261
     7  O    7.564587  -0.001816   0.000209  -0.000004   0.000000   0.000916
     8  N   -0.001816   5.964106   0.016888  -0.000724  -0.003659   0.581725
     9  N    0.000209   0.016888   5.969390   0.580745   0.579846  -0.000546
    10  O   -0.000004  -0.000724   0.580745   7.554551  -0.080492  -0.000015
    11  O    0.000000  -0.003659   0.579846  -0.080492   7.564496   0.000059
    12  O    0.000916   0.581725  -0.000546  -0.000015   0.000059   7.552575
    13  O   -0.000005   0.582992  -0.002402   0.000146  -0.005485  -0.080061
    14  Br  -0.007696  -0.017358  -0.018463  -0.008958  -0.000943  -0.008068
    15  Br  -0.000933  -0.013839  -0.015249  -0.000826  -0.007688  -0.001018
              13         14         15
     1  Pt   0.050640   0.048425   0.048588
     2  N    0.000200  -0.013826  -0.017379
     3  O    0.000000  -0.007169  -0.001527
     4  O   -0.000004  -0.001013  -0.008071
     5  N   -0.001311  -0.015271  -0.018511
     6  O    0.000669  -0.000822  -0.008969
     7  O   -0.000005  -0.007696  -0.000933
     8  N    0.582992  -0.017358  -0.013839
     9  N   -0.002402  -0.018463  -0.015249
    10  O    0.000146  -0.008958  -0.000826
    11  O   -0.005485  -0.000943  -0.007688
    12  O   -0.080061  -0.008068  -0.001018
    13  O    7.564266  -0.001529  -0.007156
    14  Br  -0.001529  35.383903  -0.006157
    15  Br  -0.007156  -0.006157  35.383770
 Mulliken charges:
               1
     1  Pt  -0.337612
     2  N   -0.070703
     3  O   -0.101040
     4  O   -0.081679
     5  N   -0.073046
     6  O   -0.081896
     7  O   -0.097794
     8  N   -0.070806
     9  N   -0.073067
    10  O   -0.081810
    11  O   -0.097772
    12  O   -0.081725
    13  O   -0.100960
    14  Br  -0.325055
    15  Br  -0.325035
 Sum of Mulliken charges =  -2.00000
 Mulliken charges with hydrogens summed into heavy atoms:
               1
     1  Pt  -0.337612
     2  N   -0.070703
     3  O   -0.101040
     4  O   -0.081679
     5  N   -0.073046
     6  O   -0.081896
     7  O   -0.097794
     8  N   -0.070806
     9  N   -0.073067
    10  O   -0.081810
    11  O   -0.097772
    12  O   -0.081725
    13  O   -0.100960
    14  Br  -0.325055
    15  Br  -0.325035
 Electronic spatial extent (au):  <R**2>=           4411.9494
 Charge=             -2.0000 electrons
 Dipole moment (field-independent basis, Debye):
    X=              0.0004    Y=             -0.0013    Z=             -0.0012  Tot=              0.0018
 Quadrupole moment (field-independent basis, Debye-Ang):
   XX=           -167.9006   YY=           -173.1892   ZZ=           -167.9996
   XY=              0.6344   XZ=              5.3437   YZ=             -0.0661
 Traceless Quadrupole moment (field-independent basis, Debye-Ang):
   XX=              1.7958   YY=             -3.4928   ZZ=              1.6969
   XY=              0.6344   XZ=              5.3437   YZ=             -0.0661
 Octapole moment (field-independent basis, Debye-Ang**2):
  XXX=              0.0001  YYY=             -0.0134  ZZZ=              0.0014  XYY=              0.0040
  XXY=             -0.0129  XXZ=             -0.0164  XZZ=              0.0016  YZZ=             -0.0047
  YYZ=             -0.0178  XYZ=              0.0041
 Hexadecapole moment (field-independent basis, Debye-Ang**3):
 XXXX=          -1992.7960 YYYY=          -1856.6295 ZZZZ=          -1655.3976 XXXY=              3.5180
 XXXZ=             12.6226 YYYX=              4.5080 YYYZ=            -11.6665 ZZZX=             87.5871
 ZZZY=             15.9446 XXYY=           -609.0301 XXZZ=           -591.9557 YYZZ=           -644.5345
 XXYZ=             -3.3875 YYXZ=             -5.5608 ZZXY=              9.1312
 N-N= 4.316140934461D+03 E-N=-6.341002690020D+04  KE= 2.274374787815D+04
 Calculating spin-rotation constants.
 Leave Link  601 at Sat Oct 30 09:32:13 2021, MaxMem=  2013265920 cpu:        11.3
 (Enter /scr/programas/g09/l9999.exe)
 1\1\GINC-NQTCM04\SP\RPBEPBE\Gen\Br2N4O8Pt1(2-)\DIEGO\30-Oct-2021\0\\#P
 BEPBE/gen scf=maxcycle=200 NMR=GIAO Scrf=(solvent=water)\\estrutura 62
 \\-2,1\Pt,0,0.000007,0.000028,0.000025\N,0,-0.059783,-1.454919,1.56790
 2\O,0,-0.810625,-1.291817,2.512901\O,0,0.672535,-2.427655,1.467817\N,0
 ,-0.116522,1.643512,1.369516\O,0,0.660486,2.572406,1.210057\O,0,-0.949
 413,1.628305,2.257676\N,0,0.059758,1.455334,-1.567481\N,0,0.116379,-1.
 643514,-1.369308\O,0,-0.659352,-2.573236,-1.208329\O,0,0.947734,-1.627
 477,-2.258897\O,0,-0.672287,2.428257,-1.466727\O,0,0.810276,1.292466,-
 2.512757\Br,0,-2.530126,-0.047466,-0.236576\Br,0,2.530293,0.047036,0.2
 35998\\Version=EM64L-G09RevD.01\State=1-A\HF=-23067.7247682\RMSD=6.197
 e-09\Dipole=0.000147,-0.0005269,-0.0004533\Quadrupole=1.3351675,-2.596
 7767,1.2616091,0.4716376,3.9729197,-0.0491397\PG=C01 [X(Br2N4O8Pt1)]\\
 @


 IN-LAWS ARE LIKE SEEDS. YOU DON'T NEED THEM
 BUT THEY COME WITH THE TOMATO.
 Job cpu time:       0 days  2 hours  2 minutes 38.6 seconds.
 File lengths (MBytes):  RWF=    249 Int=      0 D2E=      0 Chk=     19 Scr=      1
 Normal termination of Gaussian 09 at Sat Oct 30 09:32:13 2021.
