 Entering Gaussian System, Link 0=g09
 Input=estrutura33freq_LANL2DZ_TZVP.com
 Output=estrutura33freq_LANL2DZ_TZVP.log
 Initial command:
 /scr/programas/g09/l1.exe "/scr/diego/Gau-6590.inp" -scrdir="/scr/diego/"
 Entering Link 1 = /scr/programas/g09/l1.exe PID=      6592.
  
 Copyright (c) 1988,1990,1992,1993,1995,1998,2003,2009,2013,
            Gaussian, Inc.  All Rights Reserved.
  
 This is part of the Gaussian(R) 09 program.  It is based on
 the Gaussian(R) 03 system (copyright 2003, Gaussian, Inc.),
 the Gaussian(R) 98 system (copyright 1998, Gaussian, Inc.),
 the Gaussian(R) 94 system (copyright 1995, Gaussian, Inc.),
 the Gaussian 92(TM) system (copyright 1992, Gaussian, Inc.),
 the Gaussian 90(TM) system (copyright 1990, Gaussian, Inc.),
 the Gaussian 88(TM) system (copyright 1988, Gaussian, Inc.),
 the Gaussian 86(TM) system (copyright 1986, Carnegie Mellon
 University), and the Gaussian 82(TM) system (copyright 1983,
 Carnegie Mellon University). Gaussian is a federally registered
 trademark of Gaussian, Inc.
  
 This software contains proprietary and confidential information,
 including trade secrets, belonging to Gaussian, Inc.
  
 This software is provided under written license and may be
 used, copied, transmitted, or stored only in accord with that
 written license.
  
 The following legend is applicable only to US Government
 contracts under FAR:
  
                    RESTRICTED RIGHTS LEGEND
  
 Use, reproduction and disclosure by the US Government is
 subject to restrictions as set forth in subparagraphs (a)
 and (c) of the Commercial Computer Software - Restricted
 Rights clause in FAR 52.227-19.
  
 Gaussian, Inc.
 340 Quinnipiac St., Bldg. 40, Wallingford CT 06492
  
  
 ---------------------------------------------------------------
 Warning -- This program may not be used in any manner that
 competes with the business of Gaussian, Inc. or will provide
 assistance to any competitor of Gaussian, Inc.  The licensee
 of this program is prohibited from giving any competitor of
 Gaussian, Inc. access to this program.  By using this program,
 the user acknowledges that Gaussian, Inc. is engaged in the
 business of creating and licensing software in the field of
 computational chemistry and represents and warrants to the
 licensee that it is not a competitor of Gaussian, Inc. and that
 it will not use this program in any manner prohibited above.
 ---------------------------------------------------------------
  

 Cite this work as:
 Gaussian 09, Revision D.01,
 M. J. Frisch, G. W. Trucks, H. B. Schlegel, G. E. Scuseria, 
 M. A. Robb, J. R. Cheeseman, G. Scalmani, V. Barone, B. Mennucci, 
 G. A. Petersson, H. Nakatsuji, M. Caricato, X. Li, H. P. Hratchian, 
 A. F. Izmaylov, J. Bloino, G. Zheng, J. L. Sonnenberg, M. Hada, 
 M. Ehara, K. Toyota, R. Fukuda, J. Hasegawa, M. Ishida, T. Nakajima, 
 Y. Honda, O. Kitao, H. Nakai, T. Vreven, J. A. Montgomery, Jr., 
 J. E. Peralta, F. Ogliaro, M. Bearpark, J. J. Heyd, E. Brothers, 
 K. N. Kudin, V. N. Staroverov, T. Keith, R. Kobayashi, J. Normand, 
 K. Raghavachari, A. Rendell, J. C. Burant, S. S. Iyengar, J. Tomasi, 
 M. Cossi, N. Rega, J. M. Millam, M. Klene, J. E. Knox, J. B. Cross, 
 V. Bakken, C. Adamo, J. Jaramillo, R. Gomperts, R. E. Stratmann, 
 O. Yazyev, A. J. Austin, R. Cammi, C. Pomelli, J. W. Ochterski, 
 R. L. Martin, K. Morokuma, V. G. Zakrzewski, G. A. Voth, 
 P. Salvador, J. J. Dannenberg, S. Dapprich, A. D. Daniels, 
 O. Farkas, J. B. Foresman, J. V. Ortiz, J. Cioslowski, 
 and D. J. Fox, Gaussian, Inc., Wallingford CT, 2013.
 
 ******************************************
 Gaussian 09:  EM64L-G09RevD.01 24-Apr-2013
                30-Oct-2021 
 ******************************************
 %mem=15Gb
 %nproc=4
 Will use up to    4 processors via shared memory.
 ----------------------------------------------------------
 #PBEPBE/gen scf=maxcycle=200 NMR=GIAO Scrf=(solvent=water)
 ----------------------------------------------------------
 1/38=1/1;
 2/12=2,17=6,18=5,40=1/2;
 3/5=7,11=2,16=1,25=1,30=1,70=2201,72=1,74=1009/1,2,8,3;
 4//1;
 5/5=2,7=200,38=5,53=1/2;
 8/6=1,10=90,11=11/1;
 10/13=100,45=16/2;
 6/7=2,8=2,9=2,10=2,28=1/1;
 99/9=1/99;
 Leave Link    1 at Sat Oct 30 03:22:51 2021, MaxMem=  2013265920 cpu:         0.2
 (Enter /scr/programas/g09/l101.exe)
 ------------
 estrutura 33
 ------------
 Symbolic Z-matrix:
 Charge = -2 Multiplicity = 1
 Pt                    0.00003   0.13603  -0.00002 
 Br                    2.54372   0.14586   0.05993 
 Br                   -0.00039  -2.44974   0.00005 
 Cl                   -0.02123   0.11975   2.38881 
 Br                   -2.54359   0.14646  -0.05981 
 Cl                    0.02115   0.11944  -2.38883 
 N                     0.00031   2.24406  -0.00011 
 O                    -0.66728   2.82044   0.83657 
 O                     0.66799   2.82012  -0.83694 
 
 NAtoms=      9 NQM=        9 NQMF=       0 NMMI=      0 NMMIF=      0
                NMic=       0 NMicF=      0.
                    Isotopes and Nuclear Properties:
 (Nuclear quadrupole moments (NQMom) in fm**2, nuclear magnetic moments (NMagM)
  in nuclear magnetons)

  Atom         1           2           3           4           5           6           7           8           9
 IAtWgt=         195          79          79          35          79          35          14          16          16
 AtmWgt= 194.9648000  78.9183361  78.9183361  34.9688527  78.9183361  34.9688527  14.0030740  15.9949146  15.9949146
 NucSpn=           1           3           3           3           3           3           2           0           0
 AtZEff=   0.0000000   0.0000000   0.0000000   0.0000000   0.0000000   0.0000000   0.0000000   0.0000000   0.0000000
 NQMom=    0.0000000  31.3000000  31.3000000  -8.1650000  31.3000000  -8.1650000   2.0440000   0.0000000   0.0000000
 NMagM=    0.6095000   2.1063990   2.1063990   0.8218740   2.1063990   0.8218740   0.4037610   0.0000000   0.0000000
 AtZNuc=  78.0000000  35.0000000  35.0000000  17.0000000  35.0000000  17.0000000   7.0000000   8.0000000   8.0000000
 Leave Link  101 at Sat Oct 30 03:22:51 2021, MaxMem=  2013265920 cpu:         0.4
 (Enter /scr/programas/g09/l202.exe)
                          Input orientation:                          
 ---------------------------------------------------------------------
 Center     Atomic      Atomic             Coordinates (Angstroms)
 Number     Number       Type             X           Y           Z
 ---------------------------------------------------------------------
      1         78           0        0.000033    0.136033   -0.000021
      2         35           0        2.543724    0.145859    0.059926
      3         35           0       -0.000388   -2.449742    0.000045
      4         17           0       -0.021234    0.119754    2.388806
      5         35           0       -2.543592    0.146458   -0.059805
      6         17           0        0.021146    0.119442   -2.388832
      7          7           0        0.000313    2.244062   -0.000109
      8          8           0       -0.667276    2.820443    0.836574
      9          8           0        0.667992    2.820118   -0.836942
 ---------------------------------------------------------------------
                    Distance matrix (angstroms):
                    1          2          3          4          5
     1  Pt   0.000000
     2  Br   2.544416   0.000000
     3  Br   2.585775   3.635002   0.000000
     4  Cl   2.388977   3.464588   3.508408   0.000000
     5  Br   2.544349   5.088725   3.634793   3.515494   0.000000
     6  Cl   2.388962   3.515752   3.508262   4.777826   3.464531
     7  N    2.108029   3.297726   4.693804   3.196883   3.297720
     8  O    2.889853   4.250541   5.377673   3.181276   3.387367
     9  O    2.889796   3.387389   5.377611   4.262915   4.250491
                    6          7          8          9
     6  Cl   0.000000
     7  N    3.196943   0.000000
     8  O    4.262930   1.215701   0.000000
     9  O    3.181261   1.215699   2.140934   0.000000
 Stoichiometry    Br3Cl2NO2Pt(2-)
 Framework group  C1[X(Br3Cl2NO2Pt)]
 Deg. of freedom    21
 Full point group                 C1      NOp   1
 Largest Abelian subgroup         C1      NOp   1
 Largest concise Abelian subgroup C1      NOp   1
                         Standard orientation:                         
 ---------------------------------------------------------------------
 Center     Atomic      Atomic             Coordinates (Angstroms)
 Number     Number       Type             X           Y           Z
 ---------------------------------------------------------------------
      1         78           0       -0.000033    0.136033    0.000021
      2         35           0       -2.543724    0.145859   -0.059926
      3         35           0        0.000388   -2.449742   -0.000045
      4         17           0        0.021234    0.119754   -2.388806
      5         35           0        2.543592    0.146458    0.059805
      6         17           0       -0.021146    0.119442    2.388832
      7          7           0       -0.000313    2.244062    0.000109
      8          8           0        0.667276    2.820443   -0.836574
      9          8           0       -0.667992    2.820118    0.836942
 ---------------------------------------------------------------------
 Rotational constants (GHZ):      0.4114607      0.3467236      0.2744026
 Leave Link  202 at Sat Oct 30 03:22:51 2021, MaxMem=  2013265920 cpu:         0.0
 (Enter /scr/programas/g09/l301.exe)
 General basis read from cards:  (5D, 7F)
 Centers:       7
 S 6 1.00
     Exponent=  1.2238326969D+04 Coefficients=  5.6000000000D-04
     Exponent=  4.0794423230D+03 Coefficients=  7.7000000000D-04
     Exponent=  1.3598141077D+03 Coefficients=  4.0600000000D-03
     Exponent=  4.5327136922D+02 Coefficients=  1.3910000000D-02
     Exponent=  1.5109045641D+02 Coefficients=  5.2990000000D-02
     Exponent=  5.0363485469D+01 Coefficients=  1.6952000000D-01
 S 1 1.00
     Exponent=  1.6787828490D+01 Coefficients=  1.0000000000D+00
 S 1 1.00
     Exponent=  5.5959428299D+00 Coefficients=  1.0000000000D+00
 S 1 1.00
     Exponent=  1.8653142766D+00 Coefficients=  1.0000000000D+00
 S 1 1.00
     Exponent=  6.2177142554D-01 Coefficients=  1.0000000000D+00
 S 1 1.00
     Exponent=  2.0725714185D-01 Coefficients=  1.0000000000D+00
 P 4 1.00
     Exponent=  5.4142548249D+01 Coefficients=  3.9700000000D-03
     Exponent=  1.6659245615D+01 Coefficients=  1.9540000000D-02
     Exponent=  5.1259217277D+00 Coefficients=  9.9790000000D-02
     Exponent=  1.5772066854D+00 Coefficients=  3.2845000000D-01
 P 1 1.00
     Exponent=  4.8529436475D-01 Coefficients=  1.0000000000D+00
 P 1 1.00
     Exponent=  1.4932134300D-01 Coefficients=  1.0000000000D+00
 D 1 1.00
     Exponent=  4.7700000000D-01 Coefficients=  1.0000000000D+00
 D 1 1.00
     Exponent=  1.5026000000D-01 Coefficients=  1.0000000000D+00
 ****
 Centers:       8      9
 S 6 1.00
     Exponent=  1.6178118231D+04 Coefficients=  6.0000000000D-04
     Exponent=  5.3927060771D+03 Coefficients=  7.8000000000D-04
     Exponent=  1.7975686924D+03 Coefficients=  4.1000000000D-03
     Exponent=  5.9918956413D+02 Coefficients=  1.3880000000D-02
     Exponent=  1.9972985471D+02 Coefficients=  5.2770000000D-02
     Exponent=  6.6576618236D+01 Coefficients=  1.6924000000D-01
 S 1 1.00
     Exponent=  2.2192206079D+01 Coefficients=  1.0000000000D+00
 S 1 1.00
     Exponent=  7.3974020263D+00 Coefficients=  1.0000000000D+00
 S 1 1.00
     Exponent=  2.4658006754D+00 Coefficients=  1.0000000000D+00
 S 1 1.00
     Exponent=  8.2193355847D-01 Coefficients=  1.0000000000D+00
 S 1 1.00
     Exponent=  2.7397785282D-01 Coefficients=  1.0000000000D+00
 P 4 1.00
     Exponent=  7.3854398670D+01 Coefficients=  4.0200000000D-03
     Exponent=  2.2724430360D+01 Coefficients=  2.0130000000D-02
     Exponent=  6.9921324184D+00 Coefficients=  1.0470000000D-01
     Exponent=  2.1514253595D+00 Coefficients=  3.3605000000D-01
 P 1 1.00
     Exponent=  6.6197703370D-01 Coefficients=  1.0000000000D+00
 P 1 1.00
     Exponent=  2.0368524114D-01 Coefficients=  1.0000000000D+00
 D 1 1.00
     Exponent=  9.2880000000D-01 Coefficients=  1.0000000000D+00
 D 1 1.00
     Exponent=  2.2975000000D-01 Coefficients=  1.0000000000D+00
 ****
 Centers:       4      6
 S 7 1.00
     Exponent=  7.7142817164D+04 Coefficients=  1.0600000000D-03
     Exponent=  2.8051933514D+04 Coefficients=  6.4000000000D-04
     Exponent=  1.0200703096D+04 Coefficients=  3.9600000000D-03
     Exponent=  3.7093465804D+03 Coefficients=  9.8300000000D-03
     Exponent=  1.3488533020D+03 Coefficients=  3.2690000000D-02
     Exponent=  4.9049210981D+02 Coefficients=  9.9520000000D-02
     Exponent=  1.7836076720D+02 Coefficients=  2.6555000000D-01
 S 1 1.00
     Exponent=  6.4858460801D+01 Coefficients=  1.0000000000D+00
 S 1 1.00
     Exponent=  2.3584894837D+01 Coefficients=  1.0000000000D+00
 S 1 1.00
     Exponent=  8.5763253951D+00 Coefficients=  1.0000000000D+00
 S 1 1.00
     Exponent=  3.1186637801D+00 Coefficients=  1.0000000000D+00
 S 1 1.00
     Exponent=  1.1340595564D+00 Coefficients=  1.0000000000D+00
 S 1 1.00
     Exponent=  4.1238529323D-01 Coefficients=  1.0000000000D+00
 S 1 1.00
     Exponent=  1.4995828845D-01 Coefficients=  1.0000000000D+00
 S 1 1.00
     Exponent=  5.4530286708D-02 Coefficients=  1.0000000000D+00
 P 5 1.00
     Exponent=  6.9498536057D+02 Coefficients=  2.0000000000D-03
     Exponent=  2.3166178686D+02 Coefficients=  8.9500000000D-03
     Exponent=  7.7220595619D+01 Coefficients=  5.1130000000D-02
     Exponent=  2.5740198540D+01 Coefficients=  2.1011000000D-01
     Exponent=  8.5800661799D+00 Coefficients=  4.9738000000D-01
 P 1 1.00
     Exponent=  2.8600220600D+00 Coefficients=  1.0000000000D+00
 P 1 1.00
     Exponent=  9.5334068665D-01 Coefficients=  1.0000000000D+00
 P 1 1.00
     Exponent=  3.1778022888D-01 Coefficients=  1.0000000000D+00
 P 1 1.00
     Exponent=  1.0592674296D-01 Coefficients=  1.0000000000D+00
 P 1 1.00
     Exponent=  3.5308914320D-02 Coefficients=  1.0000000000D+00
 D 1 1.00
     Exponent=  5.5696000000D-01 Coefficients=  1.0000000000D+00
 D 1 1.00
     Exponent=  1.5619100000D-01 Coefficients=  1.0000000000D+00
 ****
 Centers:       2      3      5
 S 7 1.00
     Exponent=  3.4867099512D+05 Coefficients=  2.4100000000D-03
     Exponent=  1.3946839805D+05 Coefficients=  1.2000000000D-04
     Exponent=  5.5787359218D+04 Coefficients=  5.8500000000D-03
     Exponent=  2.2314943687D+04 Coefficients=  8.2100000000D-03
     Exponent=  8.9259774750D+03 Coefficients=  2.4090000000D-02
     Exponent=  3.5703909900D+03 Coefficients=  5.7250000000D-02
     Exponent=  1.4281563960D+03 Coefficients=  1.4467000000D-01
 S 1 1.00
     Exponent=  5.7126255840D+02 Coefficients=  1.0000000000D+00
 S 1 1.00
     Exponent=  2.2850502336D+02 Coefficients=  1.0000000000D+00
 S 1 1.00
     Exponent=  9.1402009344D+01 Coefficients=  1.0000000000D+00
 S 1 1.00
     Exponent=  3.6560803737D+01 Coefficients=  1.0000000000D+00
 S 1 1.00
     Exponent=  1.4624321495D+01 Coefficients=  1.0000000000D+00
 S 1 1.00
     Exponent=  5.8497285980D+00 Coefficients=  1.0000000000D+00
 S 1 1.00
     Exponent=  2.3398914392D+00 Coefficients=  1.0000000000D+00
 S 1 1.00
     Exponent=  9.3595657568D-01 Coefficients=  1.0000000000D+00
 S 1 1.00
     Exponent=  3.7438263027D-01 Coefficients=  1.0000000000D+00
 S 1 1.00
     Exponent=  1.4975305211D-01 Coefficients=  1.0000000000D+00
 S 1 1.00
     Exponent=  5.9901220843D-02 Coefficients=  1.0000000000D+00
 P 5 1.00
     Exponent=  4.2715043612D+03 Coefficients=  2.0900000000D-03
     Exponent=  1.5532743132D+03 Coefficients=  5.5700000000D-03
     Exponent=  5.6482702297D+02 Coefficients=  3.0250000000D-02
     Exponent=  2.0539164472D+02 Coefficients=  1.2196000000D-01
     Exponent=  7.4687870806D+01 Coefficients=  3.7861000000D-01
 P 1 1.00
     Exponent=  2.7159225748D+01 Coefficients=  1.0000000000D+00
 P 1 1.00
     Exponent=  9.8760820901D+00 Coefficients=  1.0000000000D+00
 P 1 1.00
     Exponent=  3.5913025782D+00 Coefficients=  1.0000000000D+00
 P 1 1.00
     Exponent=  1.3059282103D+00 Coefficients=  1.0000000000D+00
 P 1 1.00
     Exponent=  4.7488298555D-01 Coefficients=  1.0000000000D+00
 P 1 1.00
     Exponent=  1.7268472202D-01 Coefficients=  1.0000000000D+00
 P 1 1.00
     Exponent=  6.2794444370D-02 Coefficients=  1.0000000000D+00
 P 1 1.00
     Exponent=  2.2834343407D-02 Coefficients=  1.0000000000D+00
 D 4 1.00
     Exponent=  1.5776624282D+02 Coefficients=  7.9800000000D-03
     Exponent=  5.2588747607D+01 Coefficients=  4.9870000000D-02
     Exponent=  1.7529582536D+01 Coefficients=  2.2405000000D-01
     Exponent=  5.8431941786D+00 Coefficients=  4.4250000000D-01
 D 1 1.00
     Exponent=  1.9477313929D+00 Coefficients=  1.0000000000D+00
 D 1 1.00
     Exponent=  6.4924379762D-01 Coefficients=  1.0000000000D+00
 F 1 1.00
     Exponent=  1.6480000000D+00 Coefficients=  1.0000000000D+00
 F 1 1.00
     Exponent=  4.5490000000D-01 Coefficients=  1.0000000000D+00
 ****
 Centers:       1
 S 9 1.00
     Exponent=  2.1644816090D+06 Coefficients=  1.2320000000D-02
     Exponent=  1.0822408045D+06 Coefficients=  1.2970000000D-02
     Exponent=  5.4112040224D+05 Coefficients=  2.6370000000D-02
     Exponent=  2.7056020112D+05 Coefficients=  9.0400000000D-03
     Exponent=  1.3528010056D+05 Coefficients=  3.4980000000D-02
     Exponent=  6.7640050280D+04 Coefficients=  1.2220000000D-02
     Exponent=  3.3820025140D+04 Coefficients=  6.0520000000D-02
     Exponent=  1.6910012570D+04 Coefficients=  6.4930000000D-02
     Exponent=  8.4550062850D+03 Coefficients=  1.3819000000D-01
 S 1 1.00
     Exponent=  4.2275031425D+03 Coefficients=  1.0000000000D+00
 S 1 1.00
     Exponent=  2.1137515713D+03 Coefficients=  1.0000000000D+00
 S 1 1.00
     Exponent=  1.0568757856D+03 Coefficients=  1.0000000000D+00
 S 1 1.00
     Exponent=  5.2843789281D+02 Coefficients=  1.0000000000D+00
 S 1 1.00
     Exponent=  2.6421894641D+02 Coefficients=  1.0000000000D+00
 S 1 1.00
     Exponent=  1.3210947320D+02 Coefficients=  1.0000000000D+00
 S 1 1.00
     Exponent=  6.6054736602D+01 Coefficients=  1.0000000000D+00
 S 1 1.00
     Exponent=  3.3027368301D+01 Coefficients=  1.0000000000D+00
 S 1 1.00
     Exponent=  1.6513684150D+01 Coefficients=  1.0000000000D+00
 S 1 1.00
     Exponent=  8.2568420752D+00 Coefficients=  1.0000000000D+00
 S 1 1.00
     Exponent=  4.1284210376D+00 Coefficients=  1.0000000000D+00
 S 1 1.00
     Exponent=  2.0642105188D+00 Coefficients=  1.0000000000D+00
 S 1 1.00
     Exponent=  1.0321052594D+00 Coefficients=  1.0000000000D+00
 S 1 1.00
     Exponent=  5.1605262970D-01 Coefficients=  1.0000000000D+00
 S 1 1.00
     Exponent=  2.5802631485D-01 Coefficients=  1.0000000000D+00
 S 1 1.00
     Exponent=  1.2901315743D-01 Coefficients=  1.0000000000D+00
 S 1 1.00
     Exponent=  6.4506578713D-02 Coefficients=  1.0000000000D+00
 P 7 1.00
     Exponent=  3.2357915258D+04 Coefficients=  5.0200000000D-03
     Exponent=  1.4381295670D+04 Coefficients=  2.0200000000D-03
     Exponent=  6.3916869645D+03 Coefficients=  1.8070000000D-02
     Exponent=  2.8407497620D+03 Coefficients=  3.6620000000D-02
     Exponent=  1.2625554498D+03 Coefficients=  1.1172000000D-01
     Exponent=  5.6113575545D+02 Coefficients=  2.5586000000D-01
     Exponent=  2.4939366909D+02 Coefficients=  4.2608000000D-01
 P 1 1.00
     Exponent=  1.1084163071D+02 Coefficients=  1.0000000000D+00
 P 1 1.00
     Exponent=  4.9262946981D+01 Coefficients=  1.0000000000D+00
 P 1 1.00
     Exponent=  2.1894643103D+01 Coefficients=  1.0000000000D+00
 P 1 1.00
     Exponent=  9.7309524900D+00 Coefficients=  1.0000000000D+00
 P 1 1.00
     Exponent=  4.3248677733D+00 Coefficients=  1.0000000000D+00
 P 1 1.00
     Exponent=  1.9221634548D+00 Coefficients=  1.0000000000D+00
 P 1 1.00
     Exponent=  8.5429486881D-01 Coefficients=  1.0000000000D+00
 P 1 1.00
     Exponent=  3.7968660836D-01 Coefficients=  1.0000000000D+00
 P 1 1.00
     Exponent=  1.6874960372D-01 Coefficients=  1.0000000000D+00
 P 1 1.00
     Exponent=  7.4999823874D-02 Coefficients=  1.0000000000D+00
 P 1 1.00
     Exponent=  3.3333255055D-02 Coefficients=  1.0000000000D+00
 D 5 1.00
     Exponent=  1.9119003508D+03 Coefficients=  4.3300000000D-03
     Exponent=  7.6476014031D+02 Coefficients=  1.7780000000D-02
     Exponent=  3.0590405613D+02 Coefficients=  8.9710000000D-02
     Exponent=  1.2236162245D+02 Coefficients=  3.1123000000D-01
     Exponent=  4.8944648980D+01 Coefficients=  5.3206000000D-01
 D 1 1.00
     Exponent=  1.9577859592D+01 Coefficients=  1.0000000000D+00
 D 1 1.00
     Exponent=  7.8311438368D+00 Coefficients=  1.0000000000D+00
 D 1 1.00
     Exponent=  3.1324575347D+00 Coefficients=  1.0000000000D+00
 D 1 1.00
     Exponent=  1.2529830139D+00 Coefficients=  1.0000000000D+00
 D 1 1.00
     Exponent=  5.0119320556D-01 Coefficients=  1.0000000000D+00
 D 1 1.00
     Exponent=  2.0047728222D-01 Coefficients=  1.0000000000D+00
 D 1 1.00
     Exponent=  8.0190912889D-02 Coefficients=  1.0000000000D+00
 D 1 1.00
     Exponent=  3.2076365156D-02 Coefficients=  1.0000000000D+00
 F 4 1.00
     Exponent=  8.2289680979D+01 Coefficients=  6.1870000000D-02
     Exponent=  2.9923520356D+01 Coefficients=  2.4823000000D-01
     Exponent=  1.0881280130D+01 Coefficients=  4.9956000000D-01
     Exponent=  3.9568291380D+00 Coefficients=  4.0380000000D-01
 F 1 1.00
     Exponent=  1.4388469593D+00 Coefficients=  1.0000000000D+00
 F 1 1.00
     Exponent=  5.2321707610D-01 Coefficients=  1.0000000000D+00
 G 1 1.00
     Exponent=  2.6700000000D+00 Coefficients=  1.0000000000D+00
 G 1 1.00
     Exponent=  9.0960000000D-01 Coefficients=  1.0000000000D+00
 ****
 Ernie: Thresh=  0.10000D-02 Tol=  0.10000D-05 Strict=F.
 There are   558 symmetry adapted cartesian basis functions of A   symmetry.
 There are   491 symmetry adapted basis functions of A   symmetry.
   491 basis functions,   824 primitive gaussians,   558 cartesian basis functions
   121 alpha electrons      121 beta electrons
       nuclear repulsion energy      4205.2711970695 Hartrees.
 IExCor= 1009 DFT=T Ex=PBE Corr=PBE ExCW=0 ScaHFX=  0.000000
 ScaDFX=  1.000000  1.000000  1.000000  1.000000 ScalE2=  1.000000  1.000000
 IRadAn=      0 IRanWt=     -1 IRanGd=            0 ICorTp=0 IEmpDi=  4
 NAtoms=    9 NActive=    9 NUniq=    9 SFac= 1.00D+00 NAtFMM=   60 NAOKFM=F Big=F
 Integral buffers will be    131072 words long.
 Raffenetti 2 integral format.
 Two-electron integral symmetry is turned on.
 ------------------------------------------------------------------------------
 Polarizable Continuum Model (PCM)
 =================================
 Model                : PCM (using non-symmetric T matrix).
 Atomic radii         : UFF (Universal Force Field).
 Polarization charges : Total charges.
 Charge compensation  : None.
 Solution method      : On-the-fly selection.
 Cavity type          : Scaled VdW (van der Waals Surface) (Alpha=1.100).
 Cavity algorithm     : GePol (No added spheres)
                        Default sphere list used, NSphG=    9.
                        Lebedev-Laikov grids with approx.  5.0 points / Ang**2.
                        Smoothing algorithm: Karplus/York (Gamma=1.0000).
                        Polarization charges: spherical gaussians, with
                                              point-specific exponents (IZeta= 3).
                        Self-potential: point-specific (ISelfS= 7).
                        Self-field    : sphere-specific E.n sum rule (ISelfD= 2).
 Solvent              : Water, Eps=  78.355300 Eps(inf)=   1.777849
 ------------------------------------------------------------------------------
 Spheres list:
 ISph  on   Nord     Re0    Alpha      Xe            Ye            Ze
    1  Pt      1    1.3770  1.100     -0.000033      0.136033      0.000021
    2  Br      2    2.0945  1.100     -2.543724      0.145859     -0.059926
    3  Br      3    2.0945  1.100      0.000388     -2.449742     -0.000045
    4  Cl      4    1.9735  1.100      0.021234      0.119754     -2.388806
    5  Br      5    2.0945  1.100      2.543592      0.146458      0.059805
    6  Cl      6    1.9735  1.100     -0.021146      0.119442      2.388832
    7   N      7    1.8300  1.100     -0.000313      2.244062      0.000109
    8   O      8    1.7500  1.100      0.667276      2.820443     -0.836574
    9   O      9    1.7500  1.100     -0.667992      2.820118      0.836942
 ------------------------------------------------------------------------------
 GePol: Number of generator spheres                  =       9
 GePol: Total number of spheres                      =       9
 GePol: Number of exposed spheres                    =       8 ( 88.89%)
 GePol: Number of points                             =    1604
 GePol: Average weight of points                     =       0.15
 GePol: Minimum weight of points                     =   0.86D-11
 GePol: Maximum weight of points                     =    0.21616
 GePol: Number of points with low weight             =      29
 GePol: Fraction of low-weight points (<1% of avg)   =       1.81%
 GePol: Cavity surface area                          =    243.671 Ang**2
 GePol: Cavity volume                                =    260.592 Ang**3
 Leave Link  301 at Sat Oct 30 03:22:52 2021, MaxMem=  2013265920 cpu:         0.7
 (Enter /scr/programas/g09/l302.exe)
 NPDir=0 NMtPBC=     1 NCelOv=     1 NCel=       1 NClECP=     1 NCelD=      1
         NCelK=      1 NCelE2=     1 NClLst=     1 CellRange=     0.0.
 One-electron integrals computed using PRISM.
 NBasis=   491 RedAO= T EigKep=  8.24D-05  NBF=   491
 NBsUse=   491 1.00D-06 EigRej= -1.00D+00 NBFU=   491
 Precomputing XC quadrature grid using
 IXCGrd= 4 IRadAn=           0 IRanWt=          -1 IRanGd=           0 AccXCQ= 0.00D+00.
 Defaulting to unpruned grid for atomic number  78.
 Generated NRdTot=       0 NPtTot=           0 NUsed=           0 NTot=          32
 NSgBfM=   499   499   500   500   500 MxSgAt=     9 MxSgA2=     9.
 Leave Link  302 at Sat Oct 30 03:22:52 2021, MaxMem=  2013265920 cpu:         3.2
 (Enter /scr/programas/g09/l308.exe)
 Leave Link  308 at Sat Oct 30 03:22:53 2021, MaxMem=  2013265920 cpu:         0.5
 (Enter /scr/programas/g09/l303.exe)
 DipDrv:  MaxL=1.
 Leave Link  303 at Sat Oct 30 03:22:53 2021, MaxMem=  2013265920 cpu:         0.3
 (Enter /scr/programas/g09/l401.exe)
 ExpMin= 2.28D-02 ExpMax= 2.16D+06 ExpMxC= 2.16D+06 IAcc=4 IRadAn=    199590 AccDes= 0.00D+00
 Harris functional with IExCor= 1009 and IRadAn=  199590 diagonalized for initial guess.
 HarFok:  IExCor= 1009 AccDes= 0.00D+00 IRadAn=    199590 IDoV= 1 UseB2=F ITyADJ=14
 ICtDFT=  3500011 ScaDFX=  1.000000  1.000000  1.000000  1.000000
 FoFCou: FMM=F IPFlag=           0 FMFlag=      100000 FMFlg1=           0
         NFxFlg=           0 DoJE=T BraDBF=F KetDBF=T FulRan=T
         wScrn=  0.000000 ICntrl=     500 IOpCl=  0 I1Cent=   200000004 NGrid=           0
         NMat0=    1 NMatS0=      1 NMatT0=    0 NMatD0=    1 NMtDS0=    0 NMtDT0=    0
 Petite list used in FoFCou.
 Harris En= -25953.4099155772    
 JPrj=0 DoOrth=F DoCkMO=F.
 Leave Link  401 at Sat Oct 30 03:23:08 2021, MaxMem=  2013265920 cpu:        59.7
 (Enter /scr/programas/g09/l502.exe)
 Closed shell SCF:
 Using DIIS extrapolation, IDIIS=  1040.
 Integral symmetry usage will be decided dynamically.
 IVT=      984012 IEndB=      984012 NGot=  2013265920 MDV=  2012634231
 LenX=  2012634231 LenY=  2012322309
 Requested convergence on RMS density matrix=1.00D-08 within 200 cycles.
 Requested convergence on MAX density matrix=1.00D-06.
 Requested convergence on             energy=1.00D-06.
 No special actions if energy rises.
 Fock matrices will be formed incrementally for  20 cycles.

 Cycle   1  Pass 1  IDiag  1:
 FoFJK:  IHMeth= 1 ICntrl=     500 DoSepK=F KAlg= 0 I1Cent=   0 FoldK=F
 IRaf= 750000000 NMat=   1 IRICut=       1 DoRegI=T DoRafI=F ISym2E= 0.
 FoFCou: FMM=F IPFlag=           0 FMFlag=      100000 FMFlg1=           0
         NFxFlg=           0 DoJE=T BraDBF=F KetDBF=F FulRan=T
         wScrn=  0.000000 ICntrl=     500 IOpCl=  0 I1Cent=           0 NGrid=           0
         NMat0=    1 NMatS0=      1 NMatT0=    0 NMatD0=    1 NMtDS0=    0 NMtDT0=    0
 Symmetry not used in FoFCou.
 Defaulting to unpruned grid for atomic number  78.
 Defaulting to unpruned grid for atomic number  78.
 Defaulting to unpruned grid for atomic number  78.
 Defaulting to unpruned grid for atomic number  78.
 Inv3:  Mode=1 IEnd=     7718448.
 Iteration    1 A*A^-1 deviation from unit magnitude is 7.33D-15 for    340.
 Iteration    1 A*A^-1 deviation from orthogonality  is 2.95D-15 for   1118    466.
 Iteration    1 A^-1*A deviation from unit magnitude is 6.88D-15 for    856.
 Iteration    1 A^-1*A deviation from orthogonality  is 3.30D-11 for   1066    341.
 E= -25934.7510963604    
 DIIS: error= 6.10D-01 at cycle   1 NSaved=   1.
 NSaved= 1 IEnMin= 1 EnMin= -25934.7510963604     IErMin= 1 ErrMin= 6.10D-01
 ErrMax= 6.10D-01  0.00D+00 EMaxC= 1.00D-01 BMatC= 3.21D+02 BMatP= 3.21D+02
 IDIUse=3 WtCom= 0.00D+00 WtEn= 1.00D+00
 Coeff-Com:  0.100D+01
 Coeff-En:   0.100D+01
 Coeff:      0.100D+01
 Gap=     0.197 Goal=   None    Shift=    0.000
 GapD=    0.197 DampG=1.000 DampE=0.125 DampFc=0.1250 IDamp=-1.
 Damping current iteration by 1.25D-01
 RMSDP=1.39D-02 MaxDP=1.48D+00              OVMax= 8.56D-01

 Cycle   2  Pass 1  IDiag  1:
 RMSU=  1.72D-03    CP:  1.01D+00
 E= -25936.1610363542     Delta-E=       -1.409939993777 Rises=F Damp=T
 DIIS: error= 5.00D-01 at cycle   2 NSaved=   2.
 NSaved= 2 IEnMin= 2 EnMin= -25936.1610363542     IErMin= 2 ErrMin= 5.00D-01
 ErrMax= 5.00D-01  0.00D+00 EMaxC= 1.00D-01 BMatC= 2.29D+02 BMatP= 3.21D+02
 IDIUse=3 WtCom= 0.00D+00 WtEn= 1.00D+00
 Coeff-Com: -0.480D+01 0.580D+01
 Coeff-En:   0.000D+00 0.100D+01
 Coeff:      0.000D+00 0.100D+01
 Gap=     0.020 Goal=   None    Shift=    0.000
 RMSDP=5.73D-03 MaxDP=3.68D-01 DE=-1.41D+00 OVMax= 9.43D-01

 Cycle   3  Pass 1  IDiag  1:
 RMSU=  4.22D-03    CP:  1.04D+00  3.00D+00
 E= -25932.9462281055     Delta-E=        3.214808248624 Rises=F Damp=F
 DIIS: error= 1.76D-01 at cycle   3 NSaved=   3.
 NSaved= 3 IEnMin= 2 EnMin= -25936.1610363542     IErMin= 3 ErrMin= 1.76D-01
 ErrMax= 1.76D-01  0.00D+00 EMaxC= 1.00D-01 BMatC= 3.02D+01 BMatP= 2.29D+02
 IDIUse=3 WtCom= 0.00D+00 WtEn= 1.00D+00
 EnCoef did   100 forward-backward iterations
 Coeff-Com:  0.971D+00-0.907D+00 0.936D+00
 Coeff-En:   0.552D+00 0.646D-02 0.441D+00
 Coeff:      0.552D+00 0.646D-02 0.441D+00
 Gap=     0.006 Goal=   None    Shift=    0.000
 RMSDP=6.57D-03 MaxDP=4.92D-01 DE= 3.21D+00 OVMax= 9.61D-01

 Cycle   4  Pass 1  IDiag  1:
 RMSU=  4.04D-03    CP:  1.01D+00  6.99D-01  3.42D-01
 E= -25938.1497170786     Delta-E=       -5.203488973057 Rises=F Damp=F
 DIIS: error= 4.77D-02 at cycle   4 NSaved=   4.
 NSaved= 4 IEnMin= 4 EnMin= -25938.1497170786     IErMin= 4 ErrMin= 4.77D-02
 ErrMax= 4.77D-02  0.00D+00 EMaxC= 1.00D-01 BMatC= 2.81D+00 BMatP= 3.02D+01
 IDIUse=3 WtCom= 5.23D-01 WtEn= 4.77D-01
 EnCoef did   100 forward-backward iterations
 Coeff-Com:  0.850D+00-0.916D+00 0.117D+00 0.948D+00
 Coeff-En:   0.255D+00 0.589D-02 0.165D+00 0.575D+00
 Coeff:      0.566D+00-0.476D+00 0.140D+00 0.770D+00
 Gap=    -0.553 Goal=   None    Shift=    0.000
 RMSDP=7.48D-03 MaxDP=4.77D-01 DE=-5.20D+00 OVMax= 9.77D-01

 Cycle   5  Pass 1  IDiag  1:
 RMSU=  5.90D-03    CP:  9.92D-01  1.31D+00  6.45D-01 -5.45D-02
 E= -25924.0463819531     Delta-E=       14.103335125452 Rises=F Damp=F
 DIIS: error= 1.27D-01 at cycle   5 NSaved=   5.
 NSaved= 5 IEnMin= 4 EnMin= -25938.1497170786     IErMin= 4 ErrMin= 4.77D-02
 ErrMax= 1.27D-01  0.00D+00 EMaxC= 1.00D-01 BMatC= 1.27D+01 BMatP= 2.81D+00
 IDIUse=2 WtCom= 0.00D+00 WtEn= 1.00D+00
 EnCoef did     2 forward-backward iterations
 Coeff-En:   0.259D-01 0.000D+00 0.000D+00 0.794D+00 0.180D+00
 Coeff:      0.259D-01 0.000D+00 0.000D+00 0.794D+00 0.180D+00
 Gap=     0.007 Goal=   None    Shift=    0.000
 RMSDP=5.82D-03 MaxDP=4.71D-01 DE= 1.41D+01 OVMax= 8.99D-01

 Cycle   6  Pass 1  IDiag  1:
 RMSU=  2.75D-03    CP:  1.00D+00  6.51D-01  3.23D-01  8.75D-02  1.91D-01
 E= -25936.6485005745     Delta-E=      -12.602118621406 Rises=F Damp=F
 DIIS: error= 1.06D-01 at cycle   6 NSaved=   6.
 NSaved= 6 IEnMin= 4 EnMin= -25938.1497170786     IErMin= 4 ErrMin= 4.77D-02
 ErrMax= 1.06D-01  0.00D+00 EMaxC= 1.00D-01 BMatC= 4.08D+00 BMatP= 2.81D+00
 IDIUse=2 WtCom= 0.00D+00 WtEn= 1.00D+00
 EnCoef did     3 forward-backward iterations
 Coeff-En:   0.000D+00 0.000D+00 0.579D-01 0.548D+00 0.000D+00 0.394D+00
 Coeff:      0.000D+00 0.000D+00 0.579D-01 0.548D+00 0.000D+00 0.394D+00
 Gap=    -0.028 Goal=   None    Shift=    0.000
 RMSDP=4.16D-03 MaxDP=2.84D-01 DE=-1.26D+01 OVMax= 8.37D-01

 Cycle   7  Pass 1  IDiag  1:
 RMSU=  2.76D-03    CP:  1.01D+00  1.75D+00  6.71D-01  6.74D-02  2.40D-01
                    CP:  2.95D-01
 E= -25934.9275736546     Delta-E=        1.720926919996 Rises=F Damp=F
 DIIS: error= 6.07D-02 at cycle   7 NSaved=   7.
 NSaved= 7 IEnMin= 4 EnMin= -25938.1497170786     IErMin= 4 ErrMin= 4.77D-02
 ErrMax= 6.07D-02  0.00D+00 EMaxC= 1.00D-01 BMatC= 3.21D+00 BMatP= 2.81D+00
 IDIUse=2 WtCom= 0.00D+00 WtEn= 1.00D+00
 EnCoef did     1 forward-backward iterations
 Coeff-En:   0.000D+00 0.000D+00 0.000D+00 0.531D+00 0.000D+00 0.308D+00
 Coeff-En:   0.161D+00
 Coeff:      0.000D+00 0.000D+00 0.000D+00 0.531D+00 0.000D+00 0.308D+00
 Coeff:      0.161D+00
 Gap=    -0.066 Goal=   None    Shift=    0.000
 RMSDP=3.75D-03 MaxDP=2.81D-01 DE= 1.72D+00 OVMax= 8.24D-01

 Cycle   8  Pass 1  IDiag  1:
 RMSU=  2.14D-03    CP:  1.01D+00  1.25D+00  5.73D-01  1.17D-01  9.81D-02
                    CP:  2.52D-01 -1.03D-02
 E= -25939.2967942535     Delta-E=       -4.369220598965 Rises=F Damp=F
 DIIS: error= 3.05D-02 at cycle   8 NSaved=   8.
 NSaved= 8 IEnMin= 8 EnMin= -25939.2967942535     IErMin= 8 ErrMin= 3.05D-02
 ErrMax= 3.05D-02  0.00D+00 EMaxC= 1.00D-01 BMatC= 6.99D-01 BMatP= 2.81D+00
 IDIUse=3 WtCom= 6.95D-01 WtEn= 3.05D-01
 EnCoef did     5 forward-backward iterations
 Coeff-Com:  0.583D-01-0.569D-01-0.441D-01 0.372D+00-0.231D-01 0.163D+00
 Coeff-Com:  0.144D+00 0.387D+00
 Coeff-En:   0.000D+00 0.000D+00 0.000D+00 0.329D+00 0.000D+00 0.197D+00
 Coeff-En:   0.294D-01 0.444D+00
 Coeff:      0.405D-01-0.396D-01-0.306D-01 0.359D+00-0.161D-01 0.174D+00
 Coeff:      0.109D+00 0.404D+00
 Gap=    -0.053 Goal=   None    Shift=    0.000
 RMSDP=2.83D-03 MaxDP=1.48D-01 DE=-4.37D+00 OVMax= 8.07D-01

 Cycle   9  Pass 1  IDiag  1:
 RMSU=  1.50D-03    CP:  1.01D+00  6.39D-01  3.19D-01  1.66D-01  7.14D-02
                    CP:  3.14D-01 -2.21D-02  1.43D-01
 E= -25939.6938874932     Delta-E=       -0.397093239670 Rises=F Damp=F
 DIIS: error= 3.06D-02 at cycle   9 NSaved=   9.
 NSaved= 9 IEnMin= 9 EnMin= -25939.6938874932     IErMin= 8 ErrMin= 3.05D-02
 ErrMax= 3.06D-02  0.00D+00 EMaxC= 1.00D-01 BMatC= 5.17D-01 BMatP= 6.99D-01
 IDIUse=3 WtCom= 6.95D-01 WtEn= 3.05D-01
 EnCoef did     2 forward-backward iterations
 Coeff-Com: -0.211D+00 0.244D+00-0.393D-01 0.105D+00-0.147D-01-0.209D-02
 Coeff-Com:  0.414D-01 0.343D+00 0.533D+00
 Coeff-En:   0.000D+00 0.000D+00 0.000D+00 0.964D-01 0.000D+00 0.000D+00
 Coeff-En:   0.000D+00 0.327D+00 0.577D+00
 Coeff:     -0.146D+00 0.170D+00-0.273D-01 0.102D+00-0.102D-01-0.145D-02
 Coeff:      0.287D-01 0.338D+00 0.547D+00
 Gap=     0.056 Goal=   None    Shift=    0.000
 RMSDP=1.15D-03 MaxDP=7.57D-02 DE=-3.97D-01 OVMax= 2.32D-01

 Cycle  10  Pass 1  IDiag  1:
 RMSU=  8.85D-04    CP:  1.01D+00  9.12D-01  3.83D-01  2.27D-01  6.08D-02
                    CP:  2.87D-01  2.97D-03  3.08D-01  8.55D-01
 E= -25940.0383821721     Delta-E=       -0.344494678880 Rises=F Damp=F
 DIIS: error= 7.14D-03 at cycle  10 NSaved=  10.
 NSaved=10 IEnMin=10 EnMin= -25940.0383821721     IErMin=10 ErrMin= 7.14D-03
 ErrMax= 7.14D-03  0.00D+00 EMaxC= 1.00D-01 BMatC= 4.84D-02 BMatP= 5.17D-01
 IDIUse=3 WtCom= 9.29D-01 WtEn= 7.14D-02
 Coeff-Com: -0.113D+00 0.129D+00-0.180D-01 0.169D-01-0.613D-03 0.576D-02
 Coeff-Com:  0.116D-02 0.112D+00 0.305D+00 0.561D+00
 Coeff-En:   0.000D+00 0.000D+00 0.000D+00 0.000D+00 0.000D+00 0.000D+00
 Coeff-En:   0.000D+00 0.000D+00 0.137D+00 0.863D+00
 Coeff:     -0.105D+00 0.120D+00-0.167D-01 0.157D-01-0.569D-03 0.535D-02
 Coeff:      0.108D-02 0.104D+00 0.293D+00 0.583D+00
 Gap=     0.064 Goal=   None    Shift=    0.000
 RMSDP=3.64D-04 MaxDP=2.53D-02 DE=-3.44D-01 OVMax= 5.65D-02

 Cycle  11  Pass 1  IDiag  1:
 RMSU=  3.12D-04    CP:  1.01D+00  8.94D-01  3.75D-01  2.11D-01  6.82D-02
                    CP:  3.10D-01 -5.25D-03  3.20D-01  8.23D-01  8.43D-01
 E= -25940.0641402986     Delta-E=       -0.025758126489 Rises=F Damp=F
 DIIS: error= 4.96D-03 at cycle  11 NSaved=  11.
 NSaved=11 IEnMin=11 EnMin= -25940.0641402986     IErMin=11 ErrMin= 4.96D-03
 ErrMax= 4.96D-03  0.00D+00 EMaxC= 1.00D-01 BMatC= 1.26D-02 BMatP= 4.84D-02
 IDIUse=3 WtCom= 9.50D-01 WtEn= 4.96D-02
 Coeff-Com: -0.257D-01 0.292D-01-0.347D-02 0.281D-03-0.137D-03 0.106D-01
 Coeff-Com: -0.504D-02 0.191D-01 0.130D+00 0.386D+00 0.459D+00
 Coeff-En:   0.000D+00 0.000D+00 0.000D+00 0.000D+00 0.000D+00 0.000D+00
 Coeff-En:   0.000D+00 0.000D+00 0.000D+00 0.130D+00 0.870D+00
 Coeff:     -0.244D-01 0.278D-01-0.330D-02 0.267D-03-0.130D-03 0.101D-01
 Coeff:     -0.479D-02 0.181D-01 0.123D+00 0.373D+00 0.480D+00
 Gap=     0.060 Goal=   None    Shift=    0.000
 RMSDP=1.42D-04 MaxDP=1.38D-02 DE=-2.58D-02 OVMax= 3.53D-02

 Cycle  12  Pass 1  IDiag  1:
 RMSU=  7.74D-05    CP:  1.01D+00  8.76D-01  3.70D-01  2.11D-01  6.37D-02
                    CP:  3.08D-01 -1.16D-02  3.07D-01  8.29D-01  8.52D-01
                    CP:  6.64D-01
 E= -25940.0719297065     Delta-E=       -0.007789407908 Rises=F Damp=F
 DIIS: error= 1.45D-03 at cycle  12 NSaved=  12.
 NSaved=12 IEnMin=12 EnMin= -25940.0719297065     IErMin=12 ErrMin= 1.45D-03
 ErrMax= 1.45D-03  0.00D+00 EMaxC= 1.00D-01 BMatC= 1.06D-03 BMatP= 1.26D-02
 IDIUse=3 WtCom= 9.85D-01 WtEn= 1.45D-02
 Coeff-Com: -0.114D-01 0.131D-01-0.427D-03-0.256D-02 0.562D-05 0.149D-02
 Coeff-Com: -0.543D-03-0.457D-02 0.423D-01 0.592D-01 0.224D+00 0.679D+00
 Coeff-En:   0.000D+00 0.000D+00 0.000D+00 0.000D+00 0.000D+00 0.000D+00
 Coeff-En:   0.000D+00 0.000D+00 0.000D+00 0.000D+00 0.395D-01 0.961D+00
 Coeff:     -0.113D-01 0.129D-01-0.421D-03-0.253D-02 0.554D-05 0.147D-02
 Coeff:     -0.535D-03-0.450D-02 0.417D-01 0.583D-01 0.222D+00 0.683D+00
 Gap=     0.060 Goal=   None    Shift=    0.000
 RMSDP=5.33D-05 MaxDP=4.14D-03 DE=-7.79D-03 OVMax= 9.28D-03

 Cycle  13  Pass 1  IDiag  1:
 RMSU=  3.47D-05    CP:  1.01D+00  8.69D-01  3.70D-01  2.12D-01  6.41D-02
                    CP:  3.08D-01 -1.29D-02  3.01D-01  8.42D-01  8.29D-01
                    CP:  6.58D-01  7.37D-01
 E= -25940.0726491432     Delta-E=       -0.000719436750 Rises=F Damp=F
 DIIS: error= 2.48D-04 at cycle  13 NSaved=  13.
 NSaved=13 IEnMin=13 EnMin= -25940.0726491432     IErMin=13 ErrMin= 2.48D-04
 ErrMax= 2.48D-04  0.00D+00 EMaxC= 1.00D-01 BMatC= 7.87D-05 BMatP= 1.06D-03
 IDIUse=3 WtCom= 9.98D-01 WtEn= 2.48D-03
 Coeff-Com: -0.295D-02 0.336D-02-0.417D-04-0.947D-03-0.272D-04 0.758D-03
 Coeff-Com: -0.189D-03-0.270D-02 0.153D-01 0.797D-02 0.855D-01 0.336D+00
 Coeff-Com:  0.558D+00
 Coeff-En:   0.000D+00 0.000D+00 0.000D+00 0.000D+00 0.000D+00 0.000D+00
 Coeff-En:   0.000D+00 0.000D+00 0.000D+00 0.000D+00 0.000D+00 0.000D+00
 Coeff-En:   0.100D+01
 Coeff:     -0.295D-02 0.336D-02-0.416D-04-0.945D-03-0.271D-04 0.756D-03
 Coeff:     -0.189D-03-0.269D-02 0.152D-01 0.795D-02 0.853D-01 0.336D+00
 Coeff:      0.559D+00
 Gap=     0.059 Goal=   None    Shift=    0.000
 RMSDP=2.11D-05 MaxDP=1.07D-03 DE=-7.19D-04 OVMax= 1.91D-03

 Cycle  14  Pass 1  IDiag  1:
 RMSU=  1.20D-05    CP:  1.01D+00  8.71D-01  3.70D-01  2.11D-01  6.45D-02
                    CP:  3.08D-01 -1.14D-02  3.02D-01  8.40D-01  8.28D-01
                    CP:  6.75D-01  7.52D-01  5.91D-01
 E= -25940.0726908082     Delta-E=       -0.000041665022 Rises=F Damp=F
 DIIS: error= 1.79D-04 at cycle  14 NSaved=  14.
 NSaved=14 IEnMin=14 EnMin= -25940.0726908082     IErMin=14 ErrMin= 1.79D-04
 ErrMax= 1.79D-04  0.00D+00 EMaxC= 1.00D-01 BMatC= 1.34D-05 BMatP= 7.87D-05
 IDIUse=3 WtCom= 9.98D-01 WtEn= 1.79D-03
 Coeff-Com: -0.772D-03 0.881D-03-0.156D-04-0.217D-03-0.691D-05 0.220D-03
 Coeff-Com: -0.164D-03-0.838D-03 0.552D-02-0.452D-02 0.269D-01 0.133D+00
 Coeff-Com:  0.322D+00 0.518D+00
 Coeff-En:   0.000D+00 0.000D+00 0.000D+00 0.000D+00 0.000D+00 0.000D+00
 Coeff-En:   0.000D+00 0.000D+00 0.000D+00 0.000D+00 0.000D+00 0.000D+00
 Coeff-En:   0.694D-01 0.931D+00
 Coeff:     -0.771D-03 0.880D-03-0.156D-04-0.216D-03-0.690D-05 0.220D-03
 Coeff:     -0.163D-03-0.836D-03 0.551D-02-0.451D-02 0.268D-01 0.133D+00
 Coeff:      0.322D+00 0.519D+00
 Gap=     0.059 Goal=   None    Shift=    0.000
 RMSDP=8.46D-06 MaxDP=4.34D-04 DE=-4.17D-05 OVMax= 2.67D-03

 Cycle  15  Pass 1  IDiag  1:
 RMSU=  6.80D-06    CP:  1.01D+00  8.70D-01  3.70D-01  2.11D-01  6.45D-02
                    CP:  3.08D-01 -1.17D-02  3.02D-01  8.40D-01  8.27D-01
                    CP:  6.73D-01  7.56D-01  6.57D-01  6.65D-01
 E= -25940.0726881169     Delta-E=        0.000002691289 Rises=F Damp=F
 DIIS: error= 2.97D-04 at cycle  15 NSaved=  15.
 NSaved=15 IEnMin=14 EnMin= -25940.0726908082     IErMin=14 ErrMin= 1.79D-04
 ErrMax= 2.97D-04  0.00D+00 EMaxC= 1.00D-01 BMatC= 1.67D-05 BMatP= 1.34D-05
 IDIUse=3 WtCom= 9.98D-01 WtEn= 1.79D-03
 Coeff-Com: -0.139D-03 0.161D-03-0.121D-04 0.106D-04-0.798D-05 0.597D-04
 Coeff-Com: -0.134D-03-0.264D-03 0.233D-02-0.618D-02 0.883D-02 0.605D-01
 Coeff-Com:  0.187D+00 0.483D+00 0.265D+00
 Coeff-En:   0.000D+00 0.000D+00 0.000D+00 0.000D+00 0.000D+00 0.000D+00
 Coeff-En:   0.000D+00 0.000D+00 0.000D+00 0.000D+00 0.000D+00 0.000D+00
 Coeff-En:   0.000D+00 0.548D+00 0.452D+00
 Coeff:     -0.139D-03 0.160D-03-0.121D-04 0.106D-04-0.797D-05 0.596D-04
 Coeff:     -0.133D-03-0.263D-03 0.233D-02-0.617D-02 0.882D-02 0.604D-01
 Coeff:      0.186D+00 0.483D+00 0.265D+00
 Gap=     0.059 Goal=   None    Shift=    0.000
 RMSDP=5.28D-06 MaxDP=3.02D-04 DE= 2.69D-06 OVMax= 1.86D-03

 Cycle  16  Pass 1  IDiag  1:
 RMSU=  2.24D-06    CP:  1.01D+00  8.70D-01  3.70D-01  2.11D-01  6.45D-02
                    CP:  3.08D-01 -1.19D-02  3.02D-01  8.40D-01  8.27D-01
                    CP:  6.73D-01  7.58D-01  6.70D-01  7.29D-01  3.25D-01
 E= -25940.0727004591     Delta-E=       -0.000012342185 Rises=F Damp=F
 DIIS: error= 3.33D-05 at cycle  16 NSaved=  16.
 NSaved=16 IEnMin=16 EnMin= -25940.0727004591     IErMin=16 ErrMin= 3.33D-05
 ErrMax= 3.33D-05  0.00D+00 EMaxC= 1.00D-01 BMatC= 6.01D-07 BMatP= 1.34D-05
 IDIUse=1 WtCom= 1.00D+00 WtEn= 0.00D+00
 Coeff-Com:  0.179D-03-0.203D-03-0.544D-05 0.956D-04-0.180D-04 0.175D-04
 Coeff-Com: -0.570D-04-0.815D-04 0.410D-03-0.359D-02 0.607D-03 0.154D-01
 Coeff-Com:  0.599D-01 0.212D+00 0.170D+00 0.546D+00
 Coeff:      0.179D-03-0.203D-03-0.544D-05 0.956D-04-0.180D-04 0.175D-04
 Coeff:     -0.570D-04-0.815D-04 0.410D-03-0.359D-02 0.607D-03 0.154D-01
 Coeff:      0.599D-01 0.212D+00 0.170D+00 0.546D+00
 Gap=     0.059 Goal=   None    Shift=    0.000
 RMSDP=1.51D-06 MaxDP=8.89D-05 DE=-1.23D-05 OVMax= 2.44D-04

 Cycle  17  Pass 1  IDiag  1:
 RMSU=  9.46D-07    CP:  1.01D+00  8.70D-01  3.69D-01  2.11D-01  6.44D-02
                    CP:  3.08D-01 -1.21D-02  3.02D-01  8.40D-01  8.27D-01
                    CP:  6.75D-01  7.58D-01  6.61D-01  7.39D-01  3.66D-01
                    CP:  6.41D-01
 E= -25940.0727009042     Delta-E=       -0.000000445070 Rises=F Damp=F
 DIIS: error= 9.31D-06 at cycle  17 NSaved=  17.
 NSaved=17 IEnMin=17 EnMin= -25940.0727009042     IErMin=17 ErrMin= 9.31D-06
 ErrMax= 9.31D-06  0.00D+00 EMaxC= 1.00D-01 BMatC= 3.39D-08 BMatP= 6.01D-07
 IDIUse=1 WtCom= 1.00D+00 WtEn= 0.00D+00
 Coeff-Com:  0.505D-04-0.569D-04-0.439D-05 0.377D-04-0.595D-05-0.647D-05
 Coeff-Com:  0.319D-05-0.406D-04 0.208D-04-0.880D-03-0.480D-03 0.265D-02
 Coeff-Com:  0.682D-02 0.340D-01 0.413D-01 0.253D+00 0.664D+00
 Coeff:      0.505D-04-0.569D-04-0.439D-05 0.377D-04-0.595D-05-0.647D-05
 Coeff:      0.319D-05-0.406D-04 0.208D-04-0.880D-03-0.480D-03 0.265D-02
 Coeff:      0.682D-02 0.340D-01 0.413D-01 0.253D+00 0.664D+00
 Gap=     0.059 Goal=   None    Shift=    0.000
 RMSDP=4.42D-07 MaxDP=3.76D-05 DE=-4.45D-07 OVMax= 5.82D-05

 Cycle  18  Pass 1  IDiag  1:
 RMSU=  2.70D-07    CP:  1.01D+00  8.70D-01  3.69D-01  2.11D-01  6.44D-02
                    CP:  3.08D-01 -1.20D-02  3.02D-01  8.40D-01  8.27D-01
                    CP:  6.75D-01  7.59D-01  6.64D-01  7.36D-01  3.65D-01
                    CP:  6.88D-01  7.02D-01
 E= -25940.0727009250     Delta-E=       -0.000000020831 Rises=F Damp=F
 DIIS: error= 2.28D-06 at cycle  18 NSaved=  18.
 NSaved=18 IEnMin=18 EnMin= -25940.0727009250     IErMin=18 ErrMin= 2.28D-06
 ErrMax= 2.28D-06  0.00D+00 EMaxC= 1.00D-01 BMatC= 4.04D-09 BMatP= 3.39D-08
 IDIUse=1 WtCom= 1.00D+00 WtEn= 0.00D+00
 Coeff-Com:  0.202D-04-0.229D-04-0.190D-05 0.129D-04-0.217D-05-0.274D-05
 Coeff-Com:  0.203D-05-0.204D-04 0.520D-05-0.266D-03-0.318D-03 0.665D-03
 Coeff-Com:  0.124D-02 0.105D-01 0.143D-01 0.999D-01 0.349D+00 0.525D+00
 Coeff:      0.202D-04-0.229D-04-0.190D-05 0.129D-04-0.217D-05-0.274D-05
 Coeff:      0.203D-05-0.204D-04 0.520D-05-0.266D-03-0.318D-03 0.665D-03
 Coeff:      0.124D-02 0.105D-01 0.143D-01 0.999D-01 0.349D+00 0.525D+00
 Gap=     0.059 Goal=   None    Shift=    0.000
 RMSDP=2.30D-07 MaxDP=1.92D-05 DE=-2.08D-08 OVMax= 4.95D-05

 Cycle  19  Pass 1  IDiag  1:
 RMSU=  1.44D-07    CP:  1.01D+00  8.70D-01  3.69D-01  2.11D-01  6.44D-02
                    CP:  3.08D-01 -1.20D-02  3.02D-01  8.40D-01  8.27D-01
                    CP:  6.74D-01  7.58D-01  6.64D-01  7.37D-01  3.65D-01
                    CP:  6.75D-01  7.47D-01  3.88D-01
 E= -25940.0727009278     Delta-E=       -0.000000002728 Rises=F Damp=F
 DIIS: error= 1.72D-06 at cycle  19 NSaved=  19.
 NSaved=19 IEnMin=19 EnMin= -25940.0727009278     IErMin=19 ErrMin= 1.72D-06
 ErrMax= 1.72D-06  0.00D+00 EMaxC= 1.00D-01 BMatC= 1.75D-09 BMatP= 4.04D-09
 IDIUse=1 WtCom= 1.00D+00 WtEn= 0.00D+00
 Coeff-Com:  0.798D-05-0.909D-05-0.301D-06 0.367D-05-0.514D-06-0.261D-06
 Coeff-Com: -0.501D-06-0.677D-05-0.424D-05-0.111D-04-0.194D-03-0.196D-03
 Coeff-Com: -0.972D-03 0.547D-03 0.226D-02 0.247D-01 0.140D+00 0.398D+00
 Coeff-Com:  0.436D+00
 Coeff:      0.798D-05-0.909D-05-0.301D-06 0.367D-05-0.514D-06-0.261D-06
 Coeff:     -0.501D-06-0.677D-05-0.424D-05-0.111D-04-0.194D-03-0.196D-03
 Coeff:     -0.972D-03 0.547D-03 0.226D-02 0.247D-01 0.140D+00 0.398D+00
 Coeff:      0.436D+00
 Gap=     0.059 Goal=   None    Shift=    0.000
 RMSDP=1.10D-07 MaxDP=9.21D-06 DE=-2.73D-09 OVMax= 2.39D-05

 Cycle  20  Pass 1  IDiag  1:
 RMSU=  4.12D-08    CP:  1.01D+00  8.70D-01  3.69D-01  2.11D-01  6.44D-02
                    CP:  3.08D-01 -1.20D-02  3.02D-01  8.40D-01  8.27D-01
                    CP:  6.74D-01  7.58D-01  6.64D-01  7.37D-01  3.64D-01
                    CP:  6.75D-01  7.43D-01  6.14D-01  4.54D-01
 E= -25940.0727009288     Delta-E=       -0.000000001026 Rises=F Damp=F
 DIIS: error= 4.24D-07 at cycle  20 NSaved=  20.
 NSaved=20 IEnMin=20 EnMin= -25940.0727009288     IErMin=20 ErrMin= 4.24D-07
 ErrMax= 4.24D-07  0.00D+00 EMaxC= 1.00D-01 BMatC= 1.10D-10 BMatP= 1.75D-09
 IDIUse=1 WtCom= 1.00D+00 WtEn= 0.00D+00
 Coeff-Com:  0.186D-05-0.204D-05 0.221D-06 0.215D-05-0.664D-07 0.128D-06
 Coeff-Com: -0.115D-05 0.370D-06-0.766D-05 0.410D-04-0.721D-04-0.260D-03
 Coeff-Com: -0.124D-02-0.256D-02-0.153D-02-0.832D-03 0.321D-01 0.129D+00
 Coeff-Com:  0.208D+00 0.637D+00
 Coeff:      0.186D-05-0.204D-05 0.221D-06 0.215D-05-0.664D-07 0.128D-06
 Coeff:     -0.115D-05 0.370D-06-0.766D-05 0.410D-04-0.721D-04-0.260D-03
 Coeff:     -0.124D-02-0.256D-02-0.153D-02-0.832D-03 0.321D-01 0.129D+00
 Coeff:      0.208D+00 0.637D+00
 Gap=     0.059 Goal=   None    Shift=    0.000
 RMSDP=2.68D-08 MaxDP=2.26D-06 DE=-1.03D-09 OVMax= 5.40D-06

 Cycle  21  Pass 1  IDiag  1:
 Restarting incremental Fock formation.
 E= -25940.0727009283     Delta-E=        0.000000000473 Rises=F Damp=F
 DIIS: error= 1.38D-07 at cycle  21 NSaved=  20.
 NSaved=20 IEnMin=19 EnMin= -25940.0727009288     IErMin=20 ErrMin= 1.38D-07
 ErrMax= 1.38D-07  0.00D+00 EMaxC= 1.00D-01 BMatC= 1.83D-11 BMatP= 1.10D-10
 IDIUse=1 WtCom= 1.00D+00 WtEn= 0.00D+00
 Coeff-Com: -0.675D-06 0.799D-06-0.425D-08 0.283D-06-0.137D-06-0.156D-06
 Coeff-Com:  0.952D-07-0.157D-05 0.221D-04 0.110D-04-0.790D-05-0.256D-03
 Coeff-Com: -0.106D-02-0.101D-02-0.391D-02 0.230D-02 0.334D-01 0.530D-01
 Coeff-Com:  0.178D+00 0.739D+00
 Coeff:     -0.675D-06 0.799D-06-0.425D-08 0.283D-06-0.137D-06-0.156D-06
 Coeff:      0.952D-07-0.157D-05 0.221D-04 0.110D-04-0.790D-05-0.256D-03
 Coeff:     -0.106D-02-0.101D-02-0.391D-02 0.230D-02 0.334D-01 0.530D-01
 Coeff:      0.178D+00 0.739D+00
 Gap=     0.059 Goal=   None    Shift=    0.000
 RMSDP=9.26D-09 MaxDP=3.88D-07 DE= 4.73D-10 OVMax= 2.29D-06

 Error on total polarization charges =  0.03599
 SCF Done:  E(RPBE-PBE) =  -25940.0727009     A.U. after   21 cycles
            NFock= 21  Conv=0.93D-08     -V/T= 2.0130
 KE= 2.560678542924D+04 PE=-7.006215983353D+04 EE= 1.431003050629D+04
 Leave Link  502 at Sat Oct 30 03:33:56 2021, MaxMem=  2013265920 cpu:      2581.7
 (Enter /scr/programas/g09/l801.exe)
 Range of M.O.s used for correlation:     1   491
 NBasis=   491 NAE=   121 NBE=   121 NFC=     0 NFV=     0
 NROrb=    491 NOA=   121 NOB=   121 NVA=   370 NVB=   370

 **** Warning!!: The largest alpha MO coefficient is  0.26413209D+02


 **** Warning!!: The smallest alpha delta epsilon is  0.59487866D-01

 Leave Link  801 at Sat Oct 30 03:33:56 2021, MaxMem=  2013265920 cpu:         0.1
 (Enter /scr/programas/g09/l1002.exe)
 Minotr:  Closed shell wavefunction.
 NEqPCM:  Using equilibrium solvation (IEInf=0, Eps=  78.3553, EpsInf=   1.7778)
          Direct CPHF calculation.
          Differentiating once with respect to magnetic field using GIAOs.
          Electric field/nuclear overlap derivatives assumed to be zero.
          Requested convergence is 1.0D-08 RMS, and 1.0D-07 maximum.
          Secondary convergence is 1.0D-12 RMS, and 1.0D-12 maximum.
          NewPWx=T KeepS1=F KeepF1=F KeepIn=T MapXYZ=F SortEE=F KeepMc=T.
          MDV=    2013265353 using IRadAn=       2.
 Defaulting to unpruned grid for atomic number  78.
 Generate precomputed XC quadrature information.
          Solving linear equations simultaneously, MaxMat=       0.
 FoFJK:  IHMeth= 1 ICntrl=    6127 DoSepK=F KAlg= 0 I1Cent=   0 FoldK=F
 IRaf=         1 NMat=   1 IRICut=       1 DoRegI=T DoRafI=F ISym2E= 0.
 Defaulting to unpruned grid for atomic number  78.
 Defaulting to unpruned grid for atomic number  78.
 Defaulting to unpruned grid for atomic number  78.
 Defaulting to unpruned grid for atomic number  78.
          There are     3 degrees of freedom in the 1st order CPHF.  IDoFFX=0 NUNeed=     3.
      3 vectors produced by pass  0 Test12= 1.49D-12 3.33D-08 XBig12= 3.13D+01 3.18D+00.
 AX will form     3 AO Fock derivatives at one time.
 InvSVY:  IOpt=1 It=  1 EMax= 0.00D+00
 Solved reduced A of dimension     3 with     3 vectors.
 Calculating GIAO nuclear magnetic shielding tensors.
 SCF GIAO Magnetic shielding tensor (ppm):
      1  Pt   Isotropic =  -128.5368   Anisotropy =   917.0851
   XX=  -950.4448   YX=    -0.2760   ZX=   205.9041
   XY=    -0.3178   YY=   482.8531   ZY=    -0.0757
   XZ=   319.1365   YZ=    -0.0561   ZZ=    81.9811
   Eigenvalues: -1013.3629   144.8991   482.8532
      2  Br   Isotropic =  1385.0976   Anisotropy =  2375.2037
   XX=  2968.3124   YX=    81.2080   ZX=   -28.2811
   XY=   -58.6408   YY=   786.1268   ZY=   150.4242
   XZ=    70.8757   YZ=   256.1418   ZZ=   400.8537
   Eigenvalues:   313.3456   873.3805  2968.5667
      3  Br   Isotropic =  2230.6071   Anisotropy =  1074.6096
   XX=  1853.3184   YX=    -0.1050   ZX=   -21.2189
   XY=    -0.1787   YY=  2947.0135   ZY=     0.0390
   XZ=    -6.3759   YZ=     0.0875   ZZ=  1891.4895
   Eigenvalues:  1848.8535  1895.9544  2947.0135
      4  Cl   Isotropic =   669.8123   Anisotropy =   590.2058
   XX=   229.2619   YX=   117.8391   ZX=     3.8864
   XY=    60.2810   YY=   717.5927   ZY=   -51.1885
   XZ=   -50.0549   YZ=    47.0145   ZZ=  1062.5823
   Eigenvalues:   212.9375   733.2165  1063.2828
      5  Br   Isotropic =  1384.9616   Anisotropy =  2375.3596
   XX=  2968.2898   YX=   -80.6914   ZX=   -28.5078
   XY=    59.2041   YY=   786.0638   ZY=  -150.3414
   XZ=    70.7460   YZ=  -256.0795   ZZ=   400.5312
   Eigenvalues:   313.1157   873.2345  2968.5347
      6  Cl   Isotropic =   669.8237   Anisotropy =   590.2038
   XX=   229.3343   YX=  -117.9522   ZX=     3.8822
   XY=   -60.3658   YY=   717.5402   ZY=    51.1496
   XZ=   -49.9582   YZ=   -47.0979   ZZ=  1062.5965
   Eigenvalues:   212.9741   733.2041  1063.2929
      7  N    Isotropic =  -182.0534   Anisotropy =   255.8838
   XX=  -129.5343   YX=    -0.0080   ZX=   147.9730
   XY=    -0.0016   YY=  -227.5173   ZY=     0.0088
   XZ=   141.6783   YZ=     0.0105   ZZ=  -189.1085
   Eigenvalues:  -307.1786  -227.5173   -11.4642
      8  O    Isotropic =  -386.2639   Anisotropy =   425.8281
   XX=  -316.1071   YX=    50.8118   ZX=   280.4240
   XY=   -80.8283   YY=  -388.2232   ZY=    99.5042
   XZ=   268.1953   YZ=   -65.8150   ZZ=  -454.4614
   Eigenvalues:  -669.9809  -386.4323  -102.3785
      9  O    Isotropic =  -386.2785   Anisotropy =   425.8376
   XX=  -316.1421   YX=   -50.8478   ZX=   280.4513
   XY=    80.8009   YY=  -388.2115   ZY=   -99.4432
   XZ=   268.2115   YZ=    65.8884   ZZ=  -454.4818
   Eigenvalues:  -670.0161  -386.4326  -102.3867
 End of Minotr F.D. properties file   721 does not exist.
 End of Minotr F.D. properties file   722 does not exist.
 End of Minotr F.D. properties file   788 does not exist.
 Leave Link 1002 at Sat Oct 30 03:40:36 2021, MaxMem=  2013265920 cpu:      1589.9
 (Enter /scr/programas/g09/l601.exe)
 Copying SCF densities to generalized density rwf, IOpCl= 0 IROHF=0.

 **********************************************************************

            Population analysis using the SCF density.

 **********************************************************************

 Orbital symmetries:
       Occupied  (A) (A) (A) (A) (A) (A) (A) (A) (A) (A) (A) (A)
                 (A) (A) (A) (A) (A) (A) (A) (A) (A) (A) (A) (A)
                 (A) (A) (A) (A) (A) (A) (A) (A) (A) (A) (A) (A)
                 (A) (A) (A) (A) (A) (A) (A) (A) (A) (A) (A) (A)
                 (A) (A) (A) (A) (A) (A) (A) (A) (A) (A) (A) (A)
                 (A) (A) (A) (A) (A) (A) (A) (A) (A) (A) (A) (A)
                 (A) (A) (A) (A) (A) (A) (A) (A) (A) (A) (A) (A)
                 (A) (A) (A) (A) (A) (A) (A) (A) (A) (A) (A) (A)
                 (A) (A) (A) (A) (A) (A) (A) (A) (A) (A) (A) (A)
                 (A) (A) (A) (A) (A) (A) (A) (A) (A) (A) (A) (A)
                 (A)
       Virtual   (A) (A) (A) (A) (A) (A) (A) (A) (A) (A) (A) (A)
                 (A) (A) (A) (A) (A) (A) (A) (A) (A) (A) (A) (A)
                 (A) (A) (A) (A) (A) (A) (A) (A) (A) (A) (A) (A)
                 (A) (A) (A) (A) (A) (A) (A) (A) (A) (A) (A) (A)
                 (A) (A) (A) (A) (A) (A) (A) (A) (A) (A) (A) (A)
                 (A) (A) (A) (A) (A) (A) (A) (A) (A) (A) (A) (A)
                 (A) (A) (A) (A) (A) (A) (A) (A) (A) (A) (A) (A)
                 (A) (A) (A) (A) (A) (A) (A) (A) (A) (A) (A) (A)
                 (A) (A) (A) (A) (A) (A) (A) (A) (A) (A) (A) (A)
                 (A) (A) (A) (A) (A) (A) (A) (A) (A) (A) (A) (A)
                 (A) (A) (A) (A) (A) (A) (A) (A) (A) (A) (A) (A)
                 (A) (A) (A) (A) (A) (A) (A) (A) (A) (A) (A) (A)
                 (A) (A) (A) (A) (A) (A) (A) (A) (A) (A) (A) (A)
                 (A) (A) (A) (A) (A) (A) (A) (A) (A) (A) (A) (A)
                 (A) (A) (A) (A) (A) (A) (A) (A) (A) (A) (A) (A)
                 (A) (A) (A) (A) (A) (A) (A) (A) (A) (A) (A) (A)
                 (A) (A) (A) (A) (A) (A) (A) (A) (A) (A) (A) (A)
                 (A) (A) (A) (A) (A) (A) (A) (A) (A) (A) (A) (A)
                 (A) (A) (A) (A) (A) (A) (A) (A) (A) (A) (A) (A)
                 (A) (A) (A) (A) (A) (A) (A) (A) (A) (A) (A) (A)
                 (A) (A) (A) (A) (A) (A) (A) (A) (A) (A) (A) (A)
                 (A) (A) (A) (A) (A) (A) (A) (A) (A) (A) (A) (A)
                 (A) (A) (A) (A) (A) (A) (A) (A) (A) (A) (A) (A)
                 (A) (A) (A) (A) (A) (A) (A) (A) (A) (A) (A) (A)
                 (A) (A) (A) (A) (A) (A) (A) (A) (A) (A) (A) (A)
                 (A) (A) (A) (A) (A) (A) (A) (A) (A) (A) (A) (A)
                 (A) (A) (A) (A) (A) (A) (A) (A) (A) (A) (A) (A)
                 (A) (A) (A) (A) (A) (A) (A) (A) (A) (A) (A) (A)
                 (A) (A) (A) (A) (A) (A) (A) (A) (A) (A) (A) (A)
                 (A) (A) (A) (A) (A) (A) (A) (A) (A) (A) (A) (A)
                 (A) (A) (A) (A) (A) (A) (A) (A) (A) (A)
 The electronic state is 1-A.
 Alpha  occ. eigenvalues -- **********-478.58639-478.58638-478.57484-427.60579
 Alpha  occ. eigenvalues -- -414.93495-414.93476-414.93475-100.53982-100.53982
 Alpha  occ. eigenvalues --  -99.98590 -92.14262 -92.14238 -92.14237 -79.10203
 Alpha  occ. eigenvalues --  -79.10170 -79.10034 -79.10026 -79.10017 -61.50464
 Alpha  occ. eigenvalues --  -61.50464 -61.49318 -55.68963 -55.68962 -55.68647
 Alpha  occ. eigenvalues --  -55.68647 -55.68644 -55.68643 -55.67780 -55.67516
 Alpha  occ. eigenvalues --  -55.67515 -20.90033 -18.79666 -18.79666 -17.46504
 Alpha  occ. eigenvalues --  -17.46451 -17.46451 -14.19213 -11.64996 -11.64906
 Alpha  occ. eigenvalues --  -11.64406 -11.64372 -11.64361  -9.11803  -9.11802
 Alpha  occ. eigenvalues --   -8.33305  -8.33304  -8.32159  -6.95771  -6.95771
 Alpha  occ. eigenvalues --   -6.94909  -6.94909  -6.94897  -6.94897  -6.24219
 Alpha  occ. eigenvalues --   -6.24219  -6.23305  -6.23305  -6.23296  -6.23296
 Alpha  occ. eigenvalues --   -6.22973  -6.22208  -6.22205  -3.19783  -3.19726
 Alpha  occ. eigenvalues --   -3.19717  -3.19448  -3.19432  -3.19390  -3.19030
 Alpha  occ. eigenvalues --   -2.92677  -2.45138  -2.45137  -2.44909  -2.44908
 Alpha  occ. eigenvalues --   -2.44902  -2.44901  -2.44230  -2.44230  -2.44230
 Alpha  occ. eigenvalues --   -2.44230  -2.43919  -2.43725  -2.43723  -2.43160
 Alpha  occ. eigenvalues --   -2.43160  -1.86678  -1.86531  -1.86502  -1.13956
 Alpha  occ. eigenvalues --   -0.97692  -0.69795  -0.68790  -0.66322  -0.65700
 Alpha  occ. eigenvalues --   -0.64849  -0.58391  -0.48617  -0.47746  -0.46493
 Alpha  occ. eigenvalues --   -0.37833  -0.35641  -0.34611  -0.33990  -0.33152
 Alpha  occ. eigenvalues --   -0.30836  -0.29006  -0.28935  -0.28278  -0.25336
 Alpha  occ. eigenvalues --   -0.24904  -0.23960  -0.23554  -0.23398  -0.23168
 Alpha  occ. eigenvalues --   -0.23063  -0.22785  -0.22365  -0.21701  -0.21644
 Alpha  occ. eigenvalues --   -0.21292
 Alpha virt. eigenvalues --   -0.15343  -0.13822  -0.09590  -0.00789   0.00475
 Alpha virt. eigenvalues --    0.01023   0.01156   0.02882   0.02944   0.02978
 Alpha virt. eigenvalues --    0.03409   0.03585   0.05228   0.05399   0.05658
 Alpha virt. eigenvalues --    0.06832   0.06939   0.07531   0.07979   0.09251
 Alpha virt. eigenvalues --    0.09573   0.10210   0.10379   0.10548   0.11143
 Alpha virt. eigenvalues --    0.11350   0.11378   0.12213   0.15609   0.16367
 Alpha virt. eigenvalues --    0.16866   0.17626   0.17636   0.18038   0.18618
 Alpha virt. eigenvalues --    0.19435   0.19508   0.19951   0.20059   0.21661
 Alpha virt. eigenvalues --    0.22005   0.22527   0.23520   0.23798   0.24364
 Alpha virt. eigenvalues --    0.25629   0.25836   0.27362   0.27470   0.28269
 Alpha virt. eigenvalues --    0.30098   0.30302   0.30704   0.32243   0.32527
 Alpha virt. eigenvalues --    0.32976   0.33761   0.35638   0.35829   0.36678
 Alpha virt. eigenvalues --    0.37362   0.37766   0.38266   0.38931   0.40601
 Alpha virt. eigenvalues --    0.42536   0.44325   0.47313   0.49491   0.49693
 Alpha virt. eigenvalues --    0.52392   0.52924   0.53335   0.54671   0.56430
 Alpha virt. eigenvalues --    0.57696   0.58682   0.61407   0.62408   0.65525
 Alpha virt. eigenvalues --    0.65540   0.66596   0.67300   0.69200   0.70079
 Alpha virt. eigenvalues --    0.70856   0.73042   0.73569   0.75504   0.75981
 Alpha virt. eigenvalues --    0.77772   0.77824   0.79680   0.80746   0.81665
 Alpha virt. eigenvalues --    0.81695   0.82937   0.83382   0.84629   0.87710
 Alpha virt. eigenvalues --    0.88687   0.89601   0.90288   0.91376   0.91880
 Alpha virt. eigenvalues --    0.92754   0.92770   0.93699   0.94007   0.94445
 Alpha virt. eigenvalues --    0.94473   0.97571   0.98280   0.98426   1.01832
 Alpha virt. eigenvalues --    1.02077   1.03122   1.03423   1.03718   1.04652
 Alpha virt. eigenvalues --    1.05005   1.05327   1.07250   1.08232   1.08755
 Alpha virt. eigenvalues --    1.09718   1.10344   1.10588   1.12250   1.12713
 Alpha virt. eigenvalues --    1.16023   1.16443   1.16536   1.18449   1.18454
 Alpha virt. eigenvalues --    1.20487   1.20878   1.21276   1.21507   1.23340
 Alpha virt. eigenvalues --    1.23890   1.23961   1.24067   1.24659   1.26151
 Alpha virt. eigenvalues --    1.26622   1.28272   1.29010   1.29892   1.32036
 Alpha virt. eigenvalues --    1.32562   1.33714   1.35089   1.35392   1.36464
 Alpha virt. eigenvalues --    1.36845   1.37886   1.39159   1.40243   1.41152
 Alpha virt. eigenvalues --    1.42797   1.42908   1.46947   1.47124   1.48773
 Alpha virt. eigenvalues --    1.51986   1.53233   1.56748   1.62683   1.65153
 Alpha virt. eigenvalues --    1.65282   1.69569   1.71771   1.74404   1.82615
 Alpha virt. eigenvalues --    1.84714   1.85278   1.87856   1.91695   1.94043
 Alpha virt. eigenvalues --    1.96085   1.96610   2.00685   2.14818   2.20997
 Alpha virt. eigenvalues --    2.35947   2.39486   2.45903   2.48487   2.52405
 Alpha virt. eigenvalues --    2.53832   2.58547   2.62920   2.65918   2.69573
 Alpha virt. eigenvalues --    2.71265   2.72176   2.75410   2.75906   2.90252
 Alpha virt. eigenvalues --    3.02395   3.04378   3.11587   3.11726   3.13140
 Alpha virt. eigenvalues --    3.13971   3.14260   3.15416   3.17255   3.19643
 Alpha virt. eigenvalues --    3.21580   3.24787   3.31833   3.38171   3.42183
 Alpha virt. eigenvalues --    3.43418   3.48783   3.66154   3.71882   3.72640
 Alpha virt. eigenvalues --    3.74412   3.75847   3.80345   3.81016   3.81486
 Alpha virt. eigenvalues --    3.94551   3.95737   4.03717   4.05291   4.06618
 Alpha virt. eigenvalues --    4.07134   4.08159   4.08616   4.10987   4.15131
 Alpha virt. eigenvalues --    4.24853   4.26719   4.29365   4.30951   4.31413
 Alpha virt. eigenvalues --    4.31730   4.31830   4.32331   4.32628   4.33130
 Alpha virt. eigenvalues --    4.33325   4.34253   4.34733   4.35584   4.36754
 Alpha virt. eigenvalues --    4.37136   4.38371   4.38931   4.39365   4.40287
 Alpha virt. eigenvalues --    4.41700   4.43067   4.44818   4.47120   4.47676
 Alpha virt. eigenvalues --    4.49846   5.38988   5.58237   5.63579   5.71502
 Alpha virt. eigenvalues --    5.88896   5.90136   5.90641   5.92126   5.97064
 Alpha virt. eigenvalues --    6.01172   6.01289   6.02220   6.04041   6.07555
 Alpha virt. eigenvalues --    6.07756   6.07764   6.24018   6.26462   6.32955
 Alpha virt. eigenvalues --    6.86787   6.98690   8.41678   8.42069   8.42545
 Alpha virt. eigenvalues --    8.43289   8.44371   8.46637   8.47612   8.48389
 Alpha virt. eigenvalues --    8.55432   8.76590   9.72250   9.73471   9.76821
 Alpha virt. eigenvalues --    9.83131   9.85047   9.86065   9.86400   9.94538
 Alpha virt. eigenvalues --   10.00258  10.02486  10.06661  14.06916  14.10275
 Alpha virt. eigenvalues --   14.14351  16.79431  16.92199  20.27843  20.29412
 Alpha virt. eigenvalues --   20.29683  20.30413  20.31017  20.31262  20.36042
 Alpha virt. eigenvalues --   20.36544  20.42069  20.86105  20.88109  20.92801
 Alpha virt. eigenvalues --   22.96658  25.87172  30.17174  30.27674  42.80036
 Alpha virt. eigenvalues --   42.80737  42.82582  42.94299  42.97376  65.12421
 Alpha virt. eigenvalues --   65.15213  65.18758  78.10931  78.22009  81.92250
 Alpha virt. eigenvalues --   86.00330  86.01969  86.05783 112.72820 112.73898
 Alpha virt. eigenvalues --  112.74056 112.74525 112.75240 112.75470 112.78637
 Alpha virt. eigenvalues --  112.79306 112.82678 123.11017 162.93129 163.04346
 Alpha virt. eigenvalues --  257.04355 282.46815 282.49064 282.52154 428.62400
 Alpha virt. eigenvalues --  428.63723 428.66615 431.72769 431.84555 772.73664
 Alpha virt. eigenvalues -- 1043.633941043.652461043.679692068.351465495.16522
 Alpha virt. eigenvalues -- 5634.498705634.526065634.56120********************
          Condensed to atoms (all electrons):
               1          2          3          4          5          6
     1  Pt  77.787640   0.086942   0.095578   0.077042   0.086941   0.077027
     2  Br   0.086942  35.366337  -0.048127  -0.043878  -0.012384  -0.017667
     3  Br   0.095578  -0.048127  35.492491  -0.044643  -0.048143  -0.044648
     4  Cl   0.077042  -0.043878  -0.044643  17.326147  -0.017684  -0.003834
     5  Br   0.086941  -0.012384  -0.048143  -0.017684  35.366309  -0.043883
     6  Cl   0.077027  -0.017667  -0.044648  -0.003834  -0.043883  17.326169
     7  N   -0.015406  -0.007547  -0.014306  -0.006528  -0.007550  -0.006526
     8  O    0.057636  -0.000554   0.001232  -0.021644  -0.021204   0.000441
     9  O    0.057635  -0.021202   0.001233   0.000442  -0.000554  -0.021645
               7          8          9
     1  Pt  -0.015406   0.057636   0.057635
     2  Br  -0.007547  -0.000554  -0.021202
     3  Br  -0.014306   0.001232   0.001233
     4  Cl  -0.006528  -0.021644   0.000442
     5  Br  -0.007550  -0.021204  -0.000554
     6  Cl  -0.006526   0.000441  -0.021645
     7  N    5.832614   0.615952   0.615947
     8  O    0.615952   7.525308  -0.078659
     9  O    0.615947  -0.078659   7.525312
 Mulliken charges:
               1
     1  Pt  -0.311036
     2  Br  -0.301921
     3  Br  -0.390667
     4  Cl  -0.265421
     5  Br  -0.301849
     6  Cl  -0.265433
     7  N   -0.006650
     8  O   -0.078510
     9  O   -0.078511
 Sum of Mulliken charges =  -2.00000
 Mulliken charges with hydrogens summed into heavy atoms:
               1
     1  Pt  -0.311036
     2  Br  -0.301921
     3  Br  -0.390667
     4  Cl  -0.265421
     5  Br  -0.301849
     6  Cl  -0.265433
     7  N   -0.006650
     8  O   -0.078510
     9  O   -0.078511
 Electronic spatial extent (au):  <R**2>=           4074.7189
 Charge=             -2.0000 electrons
 Dipole moment (field-independent basis, Debye):
    X=              0.0002    Y=              0.7788    Z=              0.0001  Tot=              0.7788
 Quadrupole moment (field-independent basis, Debye-Ang):
   XX=           -158.3286   YY=           -161.1080   ZZ=           -158.5830
   XY=              0.0006   XZ=              1.5725   YZ=              0.0004
 Traceless Quadrupole moment (field-independent basis, Debye-Ang):
   XX=              1.0113   YY=             -1.7681   ZZ=              0.7569
   XY=              0.0006   XZ=              1.5725   YZ=              0.0004
 Octapole moment (field-independent basis, Debye-Ang**2):
  XXX=              0.0109  YYY=            -31.1148  ZZZ=             -0.0020  XYY=             -0.0009
  XXY=            -10.8382  XXZ=             -0.0012  XZZ=              0.0015  YZZ=            -12.5167
  YYZ=              0.0001  XYZ=              5.4982
 Hexadecapole moment (field-independent basis, Debye-Ang**3):
 XXXX=          -1854.0078 YYYY=          -1816.8344 ZZZZ=          -1283.9739 XXXY=              0.0048
 XXXZ=              3.2243 YYYX=              0.0242 YYYZ=              0.0046 ZZZX=              5.2532
 ZZZY=              0.0083 XXYY=           -579.5770 XXZZ=           -505.0791 YYZZ=           -488.3311
 XXYZ=             -0.0020 YYXZ=             16.3568 ZZXY=              0.0057
 N-N= 4.205271197070D+03 E-N=-7.006216002642D+04  KE= 2.560678542924D+04
 Calculating spin-rotation constants.
 Leave Link  601 at Sat Oct 30 03:40:39 2021, MaxMem=  2013265920 cpu:         5.0
 (Enter /scr/programas/g09/l9999.exe)
 1\1\GINC-NQTCM04\SP\RPBEPBE\Gen\Br3Cl2N1O2Pt1(2-)\DIEGO\30-Oct-2021\0\
 \#PBEPBE/gen scf=maxcycle=200 NMR=GIAO Scrf=(solvent=water)\\estrutura
  33\\-2,1\Pt,0,0.000033,0.136033,-0.000021\Br,0,2.543724,0.145859,0.05
 9926\Br,0,-0.000388,-2.449742,0.000045\Cl,0,-0.021234,0.119754,2.38880
 6\Br,0,-2.543592,0.146458,-0.059805\Cl,0,0.021146,0.119442,-2.388832\N
 ,0,0.000313,2.244062,-0.000109\O,0,-0.667276,2.820443,0.836574\O,0,0.6
 67992,2.820118,-0.836942\\Version=EM64L-G09RevD.01\State=1-A\HF=-25940
 .0727009\RMSD=9.259e-09\Dipole=-0.000093,0.3064109,-0.0000245\Quadrupo
 le=0.7518543,-1.3145685,0.5627142,-0.0004606,1.169097,-0.0003028\PG=C0
 1 [X(Br3Cl2N1O2Pt1)]\\@


 Time has a wonderful way of weeding out the trivial.
                                -- Richard Ben Sapir
 Job cpu time:       0 days  1 hours 10 minutes 42.1 seconds.
 File lengths (MBytes):  RWF=    181 Int=      0 D2E=      0 Chk=     15 Scr=      1
 Normal termination of Gaussian 09 at Sat Oct 30 03:40:39 2021.
