 Entering Gaussian System, Link 0=g09
 Input=estrutura13freq_LANL2DZ_TZVP.com
 Output=estrutura13freq_LANL2DZ_TZVP.log
 Initial command:
 /scr/programs/g09/l1.exe "/scr/guest/Gau-23722.inp" -scrdir="/scr/guest/"
 Entering Link 1 = /scr/programs/g09/l1.exe PID=     23723.
  
 Copyright (c) 1988,1990,1992,1993,1995,1998,2003,2009,2013,
            Gaussian, Inc.  All Rights Reserved.
  
 This is part of the Gaussian(R) 09 program.  It is based on
 the Gaussian(R) 03 system (copyright 2003, Gaussian, Inc.),
 the Gaussian(R) 98 system (copyright 1998, Gaussian, Inc.),
 the Gaussian(R) 94 system (copyright 1995, Gaussian, Inc.),
 the Gaussian 92(TM) system (copyright 1992, Gaussian, Inc.),
 the Gaussian 90(TM) system (copyright 1990, Gaussian, Inc.),
 the Gaussian 88(TM) system (copyright 1988, Gaussian, Inc.),
 the Gaussian 86(TM) system (copyright 1986, Carnegie Mellon
 University), and the Gaussian 82(TM) system (copyright 1983,
 Carnegie Mellon University). Gaussian is a federally registered
 trademark of Gaussian, Inc.
  
 This software contains proprietary and confidential information,
 including trade secrets, belonging to Gaussian, Inc.
  
 This software is provided under written license and may be
 used, copied, transmitted, or stored only in accord with that
 written license.
  
 The following legend is applicable only to US Government
 contracts under FAR:
  
                    RESTRICTED RIGHTS LEGEND
  
 Use, reproduction and disclosure by the US Government is
 subject to restrictions as set forth in subparagraphs (a)
 and (c) of the Commercial Computer Software - Restricted
 Rights clause in FAR 52.227-19.
  
 Gaussian, Inc.
 340 Quinnipiac St., Bldg. 40, Wallingford CT 06492
  
  
 ---------------------------------------------------------------
 Warning -- This program may not be used in any manner that
 competes with the business of Gaussian, Inc. or will provide
 assistance to any competitor of Gaussian, Inc.  The licensee
 of this program is prohibited from giving any competitor of
 Gaussian, Inc. access to this program.  By using this program,
 the user acknowledges that Gaussian, Inc. is engaged in the
 business of creating and licensing software in the field of
 computational chemistry and represents and warrants to the
 licensee that it is not a competitor of Gaussian, Inc. and that
 it will not use this program in any manner prohibited above.
 ---------------------------------------------------------------
  

 Cite this work as:
 Gaussian 09, Revision D.01,
 M. J. Frisch, G. W. Trucks, H. B. Schlegel, G. E. Scuseria, 
 M. A. Robb, J. R. Cheeseman, G. Scalmani, V. Barone, B. Mennucci, 
 G. A. Petersson, H. Nakatsuji, M. Caricato, X. Li, H. P. Hratchian, 
 A. F. Izmaylov, J. Bloino, G. Zheng, J. L. Sonnenberg, M. Hada, 
 M. Ehara, K. Toyota, R. Fukuda, J. Hasegawa, M. Ishida, T. Nakajima, 
 Y. Honda, O. Kitao, H. Nakai, T. Vreven, J. A. Montgomery, Jr., 
 J. E. Peralta, F. Ogliaro, M. Bearpark, J. J. Heyd, E. Brothers, 
 K. N. Kudin, V. N. Staroverov, T. Keith, R. Kobayashi, J. Normand, 
 K. Raghavachari, A. Rendell, J. C. Burant, S. S. Iyengar, J. Tomasi, 
 M. Cossi, N. Rega, J. M. Millam, M. Klene, J. E. Knox, J. B. Cross, 
 V. Bakken, C. Adamo, J. Jaramillo, R. Gomperts, R. E. Stratmann, 
 O. Yazyev, A. J. Austin, R. Cammi, C. Pomelli, J. W. Ochterski, 
 R. L. Martin, K. Morokuma, V. G. Zakrzewski, G. A. Voth, 
 P. Salvador, J. J. Dannenberg, S. Dapprich, A. D. Daniels, 
 O. Farkas, J. B. Foresman, J. V. Ortiz, J. Cioslowski, 
 and D. J. Fox, Gaussian, Inc., Wallingford CT, 2013.
 
 ******************************************
 Gaussian 09:  EM64L-G09RevD.01 24-Apr-2013
                17-Mar-2022 
 ******************************************
 %mem=30Gb
 %nproc=24
 Will use up to   24 processors via shared memory.
 ----------------------------------------------------------------------
 #PBEPBE/gen scf=(maxcycles=200,conver=6) NMR=GIAO Scrf=(solvent=water)
 ----------------------------------------------------------------------
 1/38=1/1;
 2/12=2,17=6,18=5,40=1/2;
 3/5=7,11=2,16=1,25=1,30=1,70=2201,72=1,74=1009/1,2,8,3;
 4//1;
 5/5=2,6=6,7=200,38=5,53=1/2;
 8/6=1,10=90,11=11/1;
 10/13=100,45=16/2;
 6/7=2,8=2,9=2,10=2,28=1/1;
 99/9=1/99;
 Leave Link    1 at Thu Mar 17 02:15:23 2022, MaxMem=  4026531840 cpu:         4.0
 (Enter /scr/programs/g09/l101.exe)
 ------------
 estrutura 13
 ------------
 Symbolic Z-matrix:
 Charge = -2 Multiplicity = 1
 Pt                   -0.00007  -0.00001   0. 
 Br                   -1.82834   1.7708    0. 
 Br                   -1.81935  -1.78066   0. 
 Br                    1.81945   1.78071   0. 
 N                    -0.00004  -0.00001   2.1289 
 N                    -0.00004  -0.00001  -2.1289 
 O                    -0.00004   1.06937   2.71787 
 O                     0.00004  -1.06942   2.7178 
 O                    -0.00004   1.06937  -2.71787 
 O                     0.00004  -1.06942  -2.7178 
 Br                    1.82841  -1.77082   0. 
 
 NAtoms=     11 NQM=       11 NQMF=       0 NMMI=      0 NMMIF=      0
                NMic=       0 NMicF=      0.
                    Isotopes and Nuclear Properties:
 (Nuclear quadrupole moments (NQMom) in fm**2, nuclear magnetic moments (NMagM)
  in nuclear magnetons)

  Atom         1           2           3           4           5           6           7           8           9          10
 IAtWgt=         195          79          79          79          14          14          16          16          16          16
 AtmWgt= 194.9648000  78.9183361  78.9183361  78.9183361  14.0030740  14.0030740  15.9949146  15.9949146  15.9949146  15.9949146
 NucSpn=           1           3           3           3           2           2           0           0           0           0
 AtZEff=   0.0000000   0.0000000   0.0000000   0.0000000   0.0000000   0.0000000   0.0000000   0.0000000   0.0000000   0.0000000
 NQMom=    0.0000000  31.3000000  31.3000000  31.3000000   2.0440000   2.0440000   0.0000000   0.0000000   0.0000000   0.0000000
 NMagM=    0.6095000   2.1063990   2.1063990   2.1063990   0.4037610   0.4037610   0.0000000   0.0000000   0.0000000   0.0000000
 AtZNuc=  78.0000000  35.0000000  35.0000000  35.0000000   7.0000000   7.0000000   8.0000000   8.0000000   8.0000000   8.0000000

  Atom        11
 IAtWgt=          79
 AtmWgt=  78.9183361
 NucSpn=           3
 AtZEff=   0.0000000
 NQMom=   31.3000000
 NMagM=    2.1063990
 AtZNuc=  35.0000000
 Leave Link  101 at Thu Mar 17 02:15:23 2022, MaxMem=  4026531840 cpu:         2.7
 (Enter /scr/programs/g09/l202.exe)
                          Input orientation:                          
 ---------------------------------------------------------------------
 Center     Atomic      Atomic             Coordinates (Angstroms)
 Number     Number       Type             X           Y           Z
 ---------------------------------------------------------------------
      1         78           0       -0.000071   -0.000006    0.000000
      2         35           0       -1.828336    1.770804    0.000000
      3         35           0       -1.819346   -1.780658    0.000000
      4         35           0        1.819450    1.780711    0.000000
      5          7           0       -0.000043   -0.000009    2.128902
      6          7           0       -0.000043   -0.000009   -2.128902
      7          8           0       -0.000043    1.069374    2.717865
      8          8           0        0.000043   -1.069418    2.717798
      9          8           0       -0.000043    1.069374   -2.717865
     10          8           0        0.000043   -1.069418   -2.717798
     11         35           0        1.828407   -1.770820    0.000000
 ---------------------------------------------------------------------
                    Distance matrix (angstroms):
                    1          2          3          4          5
     1  Pt   0.000000
     2  Br   2.545255   0.000000
     3  Br   2.545679   3.551473   0.000000
     4  Br   2.545901   3.647799   5.091580   0.000000
     5  N    2.128902   3.318231   3.318554   3.318696   0.000000
     6  N    2.128902   3.318231   3.318554   3.318696   4.257804
     7  O    2.920679   3.349843   4.338126   3.347140   1.220843
     8  O    2.920628   4.335465   3.347008   4.338191   1.220833
     9  O    2.920679   3.349843   4.338126   3.347140   4.963339
    10  O    2.920628   4.335465   3.347008   4.338191   4.963279
    11  Br   2.545410   5.090665   3.647766   3.551542   3.318317
                    6          7          8          9         10
     6  N    0.000000
     7  O    4.963339   0.000000
     8  O    4.963279   2.138792   0.000000
     9  O    1.220843   5.435730   5.841307   0.000000
    10  O    1.220833   5.841307   5.435596   2.138792   0.000000
    11  Br   3.318317   4.335519   3.349822   4.335519   3.349822
                   11
    11  Br   0.000000
 Stoichiometry    Br4N2O4Pt(2-)
 Framework group  CS[SG(Br4Pt),X(N2O4)]
 Deg. of freedom    16
 Full point group                 CS      NOp   2
 Largest Abelian subgroup         CS      NOp   2
 Largest concise Abelian subgroup CS      NOp   2
                         Standard orientation:                         
 ---------------------------------------------------------------------
 Center     Atomic      Atomic             Coordinates (Angstroms)
 Number     Number       Type             X           Y           Z
 ---------------------------------------------------------------------
      1         78           0       -0.000071   -0.000006    0.000000
      2         35           0       -1.828336    1.770804    0.000000
      3         35           0       -1.819346   -1.780658    0.000000
      4         35           0        1.819450    1.780711    0.000000
      5          7           0       -0.000043   -0.000009    2.128902
      6          7           0       -0.000043   -0.000009   -2.128902
      7          8           0       -0.000043    1.069374    2.717865
      8          8           0        0.000043   -1.069418    2.717798
      9          8           0       -0.000043    1.069374   -2.717865
     10          8           0        0.000043   -1.069418   -2.717798
     11         35           0        1.828407   -1.770820    0.000000
 ---------------------------------------------------------------------
 Rotational constants (GHZ):      0.3063593      0.3029649      0.2385333
 Leave Link  202 at Thu Mar 17 02:15:23 2022, MaxMem=  4026531840 cpu:         2.3
 (Enter /scr/programs/g09/l301.exe)
 General basis read from cards:  (5D, 7F)
 Centers:       5      6
 S 6 1.00
     Exponent=  1.2238326969D+04 Coefficients=  5.6000000000D-04
     Exponent=  4.0794423230D+03 Coefficients=  7.7000000000D-04
     Exponent=  1.3598141077D+03 Coefficients=  4.0600000000D-03
     Exponent=  4.5327136922D+02 Coefficients=  1.3910000000D-02
     Exponent=  1.5109045641D+02 Coefficients=  5.2990000000D-02
     Exponent=  5.0363485469D+01 Coefficients=  1.6952000000D-01
 S 1 1.00
     Exponent=  1.6787828490D+01 Coefficients=  1.0000000000D+00
 S 1 1.00
     Exponent=  5.5959428299D+00 Coefficients=  1.0000000000D+00
 S 1 1.00
     Exponent=  1.8653142766D+00 Coefficients=  1.0000000000D+00
 S 1 1.00
     Exponent=  6.2177142554D-01 Coefficients=  1.0000000000D+00
 S 1 1.00
     Exponent=  2.0725714185D-01 Coefficients=  1.0000000000D+00
 P 4 1.00
     Exponent=  5.4142548249D+01 Coefficients=  3.9700000000D-03
     Exponent=  1.6659245615D+01 Coefficients=  1.9540000000D-02
     Exponent=  5.1259217277D+00 Coefficients=  9.9790000000D-02
     Exponent=  1.5772066854D+00 Coefficients=  3.2845000000D-01
 P 1 1.00
     Exponent=  4.8529436475D-01 Coefficients=  1.0000000000D+00
 P 1 1.00
     Exponent=  1.4932134300D-01 Coefficients=  1.0000000000D+00
 D 1 1.00
     Exponent=  4.7700000000D-01 Coefficients=  1.0000000000D+00
 D 1 1.00
     Exponent=  1.5026000000D-01 Coefficients=  1.0000000000D+00
 ****
 Centers:       7      8      9     10
 S 6 1.00
     Exponent=  1.6178118231D+04 Coefficients=  6.0000000000D-04
     Exponent=  5.3927060771D+03 Coefficients=  7.8000000000D-04
     Exponent=  1.7975686924D+03 Coefficients=  4.1000000000D-03
     Exponent=  5.9918956413D+02 Coefficients=  1.3880000000D-02
     Exponent=  1.9972985471D+02 Coefficients=  5.2770000000D-02
     Exponent=  6.6576618236D+01 Coefficients=  1.6924000000D-01
 S 1 1.00
     Exponent=  2.2192206079D+01 Coefficients=  1.0000000000D+00
 S 1 1.00
     Exponent=  7.3974020263D+00 Coefficients=  1.0000000000D+00
 S 1 1.00
     Exponent=  2.4658006754D+00 Coefficients=  1.0000000000D+00
 S 1 1.00
     Exponent=  8.2193355847D-01 Coefficients=  1.0000000000D+00
 S 1 1.00
     Exponent=  2.7397785282D-01 Coefficients=  1.0000000000D+00
 P 4 1.00
     Exponent=  7.3854398670D+01 Coefficients=  4.0200000000D-03
     Exponent=  2.2724430360D+01 Coefficients=  2.0130000000D-02
     Exponent=  6.9921324184D+00 Coefficients=  1.0470000000D-01
     Exponent=  2.1514253595D+00 Coefficients=  3.3605000000D-01
 P 1 1.00
     Exponent=  6.6197703370D-01 Coefficients=  1.0000000000D+00
 P 1 1.00
     Exponent=  2.0368524114D-01 Coefficients=  1.0000000000D+00
 D 1 1.00
     Exponent=  9.2880000000D-01 Coefficients=  1.0000000000D+00
 D 1 1.00
     Exponent=  2.2975000000D-01 Coefficients=  1.0000000000D+00
 ****
 Centers:       2      3      4     11
 S 7 1.00
     Exponent=  3.4867099512D+05 Coefficients=  2.4100000000D-03
     Exponent=  1.3946839805D+05 Coefficients=  1.2000000000D-04
     Exponent=  5.5787359218D+04 Coefficients=  5.8500000000D-03
     Exponent=  2.2314943687D+04 Coefficients=  8.2100000000D-03
     Exponent=  8.9259774750D+03 Coefficients=  2.4090000000D-02
     Exponent=  3.5703909900D+03 Coefficients=  5.7250000000D-02
     Exponent=  1.4281563960D+03 Coefficients=  1.4467000000D-01
 S 1 1.00
     Exponent=  5.7126255840D+02 Coefficients=  1.0000000000D+00
 S 1 1.00
     Exponent=  2.2850502336D+02 Coefficients=  1.0000000000D+00
 S 1 1.00
     Exponent=  9.1402009344D+01 Coefficients=  1.0000000000D+00
 S 1 1.00
     Exponent=  3.6560803737D+01 Coefficients=  1.0000000000D+00
 S 1 1.00
     Exponent=  1.4624321495D+01 Coefficients=  1.0000000000D+00
 S 1 1.00
     Exponent=  5.8497285980D+00 Coefficients=  1.0000000000D+00
 S 1 1.00
     Exponent=  2.3398914392D+00 Coefficients=  1.0000000000D+00
 S 1 1.00
     Exponent=  9.3595657568D-01 Coefficients=  1.0000000000D+00
 S 1 1.00
     Exponent=  3.7438263027D-01 Coefficients=  1.0000000000D+00
 S 1 1.00
     Exponent=  1.4975305211D-01 Coefficients=  1.0000000000D+00
 S 1 1.00
     Exponent=  5.9901220843D-02 Coefficients=  1.0000000000D+00
 P 5 1.00
     Exponent=  4.2715043612D+03 Coefficients=  2.0900000000D-03
     Exponent=  1.5532743132D+03 Coefficients=  5.5700000000D-03
     Exponent=  5.6482702297D+02 Coefficients=  3.0250000000D-02
     Exponent=  2.0539164472D+02 Coefficients=  1.2196000000D-01
     Exponent=  7.4687870806D+01 Coefficients=  3.7861000000D-01
 P 1 1.00
     Exponent=  2.7159225748D+01 Coefficients=  1.0000000000D+00
 P 1 1.00
     Exponent=  9.8760820901D+00 Coefficients=  1.0000000000D+00
 P 1 1.00
     Exponent=  3.5913025782D+00 Coefficients=  1.0000000000D+00
 P 1 1.00
     Exponent=  1.3059282103D+00 Coefficients=  1.0000000000D+00
 P 1 1.00
     Exponent=  4.7488298555D-01 Coefficients=  1.0000000000D+00
 P 1 1.00
     Exponent=  1.7268472202D-01 Coefficients=  1.0000000000D+00
 P 1 1.00
     Exponent=  6.2794444370D-02 Coefficients=  1.0000000000D+00
 P 1 1.00
     Exponent=  2.2834343407D-02 Coefficients=  1.0000000000D+00
 D 4 1.00
     Exponent=  1.5776624282D+02 Coefficients=  7.9800000000D-03
     Exponent=  5.2588747607D+01 Coefficients=  4.9870000000D-02
     Exponent=  1.7529582536D+01 Coefficients=  2.2405000000D-01
     Exponent=  5.8431941786D+00 Coefficients=  4.4250000000D-01
 D 1 1.00
     Exponent=  1.9477313929D+00 Coefficients=  1.0000000000D+00
 D 1 1.00
     Exponent=  6.4924379762D-01 Coefficients=  1.0000000000D+00
 F 1 1.00
     Exponent=  1.6480000000D+00 Coefficients=  1.0000000000D+00
 F 1 1.00
     Exponent=  4.5490000000D-01 Coefficients=  1.0000000000D+00
 ****
 Centers:       1
 S 9 1.00
     Exponent=  2.1644816090D+06 Coefficients=  1.2320000000D-02
     Exponent=  1.0822408045D+06 Coefficients=  1.2970000000D-02
     Exponent=  5.4112040224D+05 Coefficients=  2.6370000000D-02
     Exponent=  2.7056020112D+05 Coefficients=  9.0400000000D-03
     Exponent=  1.3528010056D+05 Coefficients=  3.4980000000D-02
     Exponent=  6.7640050280D+04 Coefficients=  1.2220000000D-02
     Exponent=  3.3820025140D+04 Coefficients=  6.0520000000D-02
     Exponent=  1.6910012570D+04 Coefficients=  6.4930000000D-02
     Exponent=  8.4550062850D+03 Coefficients=  1.3819000000D-01
 S 1 1.00
     Exponent=  4.2275031425D+03 Coefficients=  1.0000000000D+00
 S 1 1.00
     Exponent=  2.1137515713D+03 Coefficients=  1.0000000000D+00
 S 1 1.00
     Exponent=  1.0568757856D+03 Coefficients=  1.0000000000D+00
 S 1 1.00
     Exponent=  5.2843789281D+02 Coefficients=  1.0000000000D+00
 S 1 1.00
     Exponent=  2.6421894641D+02 Coefficients=  1.0000000000D+00
 S 1 1.00
     Exponent=  1.3210947320D+02 Coefficients=  1.0000000000D+00
 S 1 1.00
     Exponent=  6.6054736602D+01 Coefficients=  1.0000000000D+00
 S 1 1.00
     Exponent=  3.3027368301D+01 Coefficients=  1.0000000000D+00
 S 1 1.00
     Exponent=  1.6513684150D+01 Coefficients=  1.0000000000D+00
 S 1 1.00
     Exponent=  8.2568420752D+00 Coefficients=  1.0000000000D+00
 S 1 1.00
     Exponent=  4.1284210376D+00 Coefficients=  1.0000000000D+00
 S 1 1.00
     Exponent=  2.0642105188D+00 Coefficients=  1.0000000000D+00
 S 1 1.00
     Exponent=  1.0321052594D+00 Coefficients=  1.0000000000D+00
 S 1 1.00
     Exponent=  5.1605262970D-01 Coefficients=  1.0000000000D+00
 S 1 1.00
     Exponent=  2.5802631485D-01 Coefficients=  1.0000000000D+00
 S 1 1.00
     Exponent=  1.2901315743D-01 Coefficients=  1.0000000000D+00
 S 1 1.00
     Exponent=  6.4506578713D-02 Coefficients=  1.0000000000D+00
 P 7 1.00
     Exponent=  3.2357915258D+04 Coefficients=  5.0200000000D-03
     Exponent=  1.4381295670D+04 Coefficients=  2.0200000000D-03
     Exponent=  6.3916869645D+03 Coefficients=  1.8070000000D-02
     Exponent=  2.8407497620D+03 Coefficients=  3.6620000000D-02
     Exponent=  1.2625554498D+03 Coefficients=  1.1172000000D-01
     Exponent=  5.6113575545D+02 Coefficients=  2.5586000000D-01
     Exponent=  2.4939366909D+02 Coefficients=  4.2608000000D-01
 P 1 1.00
     Exponent=  1.1084163071D+02 Coefficients=  1.0000000000D+00
 P 1 1.00
     Exponent=  4.9262946981D+01 Coefficients=  1.0000000000D+00
 P 1 1.00
     Exponent=  2.1894643103D+01 Coefficients=  1.0000000000D+00
 P 1 1.00
     Exponent=  9.7309524900D+00 Coefficients=  1.0000000000D+00
 P 1 1.00
     Exponent=  4.3248677733D+00 Coefficients=  1.0000000000D+00
 P 1 1.00
     Exponent=  1.9221634548D+00 Coefficients=  1.0000000000D+00
 P 1 1.00
     Exponent=  8.5429486881D-01 Coefficients=  1.0000000000D+00
 P 1 1.00
     Exponent=  3.7968660836D-01 Coefficients=  1.0000000000D+00
 P 1 1.00
     Exponent=  1.6874960372D-01 Coefficients=  1.0000000000D+00
 P 1 1.00
     Exponent=  7.4999823874D-02 Coefficients=  1.0000000000D+00
 P 1 1.00
     Exponent=  3.3333255055D-02 Coefficients=  1.0000000000D+00
 D 5 1.00
     Exponent=  1.9119003508D+03 Coefficients=  4.3300000000D-03
     Exponent=  7.6476014031D+02 Coefficients=  1.7780000000D-02
     Exponent=  3.0590405613D+02 Coefficients=  8.9710000000D-02
     Exponent=  1.2236162245D+02 Coefficients=  3.1123000000D-01
     Exponent=  4.8944648980D+01 Coefficients=  5.3206000000D-01
 D 1 1.00
     Exponent=  1.9577859592D+01 Coefficients=  1.0000000000D+00
 D 1 1.00
     Exponent=  7.8311438368D+00 Coefficients=  1.0000000000D+00
 D 1 1.00
     Exponent=  3.1324575347D+00 Coefficients=  1.0000000000D+00
 D 1 1.00
     Exponent=  1.2529830139D+00 Coefficients=  1.0000000000D+00
 D 1 1.00
     Exponent=  5.0119320556D-01 Coefficients=  1.0000000000D+00
 D 1 1.00
     Exponent=  2.0047728222D-01 Coefficients=  1.0000000000D+00
 D 1 1.00
     Exponent=  8.0190912889D-02 Coefficients=  1.0000000000D+00
 D 1 1.00
     Exponent=  3.2076365156D-02 Coefficients=  1.0000000000D+00
 F 4 1.00
     Exponent=  8.2289680979D+01 Coefficients=  6.1870000000D-02
     Exponent=  2.9923520356D+01 Coefficients=  2.4823000000D-01
     Exponent=  1.0881280130D+01 Coefficients=  4.9956000000D-01
     Exponent=  3.9568291380D+00 Coefficients=  4.0380000000D-01
 F 1 1.00
     Exponent=  1.4388469593D+00 Coefficients=  1.0000000000D+00
 F 1 1.00
     Exponent=  5.2321707610D-01 Coefficients=  1.0000000000D+00
 G 1 1.00
     Exponent=  2.6700000000D+00 Coefficients=  1.0000000000D+00
 G 1 1.00
     Exponent=  9.0960000000D-01 Coefficients=  1.0000000000D+00
 ****
 Ernie: Thresh=  0.10000D-02 Tol=  0.10000D-05 Strict=F.
 There are   411 symmetry adapted cartesian basis functions of A'  symmetry.
 There are   227 symmetry adapted cartesian basis functions of A"  symmetry.
 There are   354 symmetry adapted basis functions of A'  symmetry.
 There are   206 symmetry adapted basis functions of A"  symmetry.
   560 basis functions,   946 primitive gaussians,   638 cartesian basis functions
   133 alpha electrons      133 beta electrons
       nuclear repulsion energy      5091.5422581894 Hartrees.
 IExCor= 1009 DFT=T Ex=PBE Corr=PBE ExCW=0 ScaHFX=  0.000000
 ScaDFX=  1.000000  1.000000  1.000000  1.000000 ScalE2=  1.000000  1.000000
 IRadAn=      0 IRanWt=     -1 IRanGd=            0 ICorTp=0 IEmpDi=  4
 NAtoms=   11 NActive=   11 NUniq=    8 SFac= 1.89D+00 NAtFMM=   60 NAOKFM=F Big=F
 Integral buffers will be    131072 words long.
 Raffenetti 2 integral format.
 Two-electron integral symmetry is turned on.
 ------------------------------------------------------------------------------
 Polarizable Continuum Model (PCM)
 =================================
 Model                : PCM (using non-symmetric T matrix).
 Atomic radii         : UFF (Universal Force Field).
 Polarization charges : Total charges.
 Charge compensation  : None.
 Solution method      : On-the-fly selection.
 Cavity type          : Scaled VdW (van der Waals Surface) (Alpha=1.100).
 Cavity algorithm     : GePol (No added spheres)
                        Default sphere list used, NSphG=   11.
                        Lebedev-Laikov grids with approx.  5.0 points / Ang**2.
                        Smoothing algorithm: Karplus/York (Gamma=1.0000).
                        Polarization charges: spherical gaussians, with
                                              point-specific exponents (IZeta= 3).
                        Self-potential: point-specific (ISelfS= 7).
                        Self-field    : sphere-specific E.n sum rule (ISelfD= 2).
 Solvent              : Water, Eps=  78.355300 Eps(inf)=   1.777849
 ------------------------------------------------------------------------------
 Spheres list:
 ISph  on   Nord     Re0    Alpha      Xe            Ye            Ze
    1  Pt      1    1.3770  1.100     -0.000071     -0.000006      0.000000
    2  Br      2    2.0945  1.100     -1.828336      1.770804      0.000000
    3  Br      3    2.0945  1.100     -1.819346     -1.780658      0.000000
    4  Br      4    2.0945  1.100      1.819450      1.780711      0.000000
    5   N      5    1.8300  1.100     -0.000043     -0.000009      2.128902
    6   N      6    1.8300  1.100     -0.000043     -0.000009     -2.128902
    7   O      7    1.7500  1.100     -0.000043      1.069374      2.717865
    8   O      8    1.7500  1.100      0.000043     -1.069418      2.717798
    9   O      9    1.7500  1.100     -0.000043      1.069374     -2.717865
   10   O     10    1.7500  1.100      0.000043     -1.069418     -2.717798
   11  Br     11    2.0945  1.100      1.828407     -1.770820      0.000000
 ------------------------------------------------------------------------------
 GePol: Number of generator spheres                  =      11
 GePol: Total number of spheres                      =      11
 GePol: Number of exposed spheres                    =      10 ( 90.91%)
 GePol: Number of points                             =    1828
 GePol: Average weight of points                     =       0.14
 GePol: Minimum weight of points                     =   0.49D-06
 GePol: Maximum weight of points                     =    0.18291
 GePol: Number of points with low weight             =      36
 GePol: Fraction of low-weight points (<1% of avg)   =       1.97%
 GePol: Cavity surface area                          =    254.214 Ang**2
 GePol: Cavity volume                                =    279.350 Ang**3
 Leave Link  301 at Thu Mar 17 02:15:24 2022, MaxMem=  4026531840 cpu:         8.8
 (Enter /scr/programs/g09/l302.exe)
 NPDir=0 NMtPBC=     1 NCelOv=     1 NCel=       1 NClECP=     1 NCelD=      1
         NCelK=      1 NCelE2=     1 NClLst=     1 CellRange=     0.0.
 One-electron integrals computed using PRISM.
 One-electron integral symmetry used in STVInt
 NBasis=   560 RedAO= T EigKep=  9.89D-05  NBF=   354   206
 NBsUse=   560 1.00D-06 EigRej= -1.00D+00 NBFU=   354   206
 Precomputing XC quadrature grid using
 IXCGrd= 4 IRadAn=           0 IRanWt=          -1 IRanGd=           0 AccXCQ= 0.00D+00.
 Defaulting to unpruned grid for atomic number  78.
 Generated NRdTot=       0 NPtTot=           0 NUsed=           0 NTot=          32
 NSgBfM=   577   577   577   577   579 MxSgAt=    11 MxSgA2=    11.
 Leave Link  302 at Thu Mar 17 02:15:33 2022, MaxMem=  4026531840 cpu:       204.0
 (Enter /scr/programs/g09/l308.exe)
 Leave Link  308 at Thu Mar 17 02:15:35 2022, MaxMem=  4026531840 cpu:        56.5
 (Enter /scr/programs/g09/l303.exe)
 DipDrv:  MaxL=1.
 Leave Link  303 at Thu Mar 17 02:15:36 2022, MaxMem=  4026531840 cpu:        20.3
 (Enter /scr/programs/g09/l401.exe)
 ExpMin= 2.28D-02 ExpMax= 2.16D+06 ExpMxC= 2.16D+06 IAcc=4 IRadAn=    199590 AccDes= 0.00D+00
 Harris functional with IExCor= 1009 and IRadAn=  199590 diagonalized for initial guess.
 HarFok:  IExCor= 1009 AccDes= 0.00D+00 IRadAn=    199590 IDoV= 1 UseB2=F ITyADJ=14
 ICtDFT=  3500011 ScaDFX=  1.000000  1.000000  1.000000  1.000000
 FoFCou: FMM=F IPFlag=           0 FMFlag=      100000 FMFlg1=           0
         NFxFlg=           0 DoJE=T BraDBF=F KetDBF=T FulRan=T
         wScrn=  0.000000 ICntrl=     500 IOpCl=  0 I1Cent=   200000004 NGrid=           0
         NMat0=    1 NMatS0=      1 NMatT0=    0 NMatD0=    1 NMtDS0=    0 NMtDT0=    0
 Petite list used in FoFCou.
 Harris En= -27806.8795637547    
 JPrj=0 DoOrth=F DoCkMO=F.
 Initial guess orbital symmetries:
       Occupied  (A') (A') (A') (A') (A') (A') (A") (A') (A') (A')
                 (A') (A') (A") (A') (A') (A") (A') (A") (A') (A')
                 (A') (A') (A') (A') (A') (A') (A") (A") (A") (A")
                 (A') (A') (A') (A') (A') (A') (A") (A') (A") (A')
                 (A') (A") (A') (A") (A') (A') (A") (A") (A') (A')
                 (A') (A') (A') (A') (A') (A') (A') (A') (A') (A')
                 (A') (A") (A") (A") (A") (A') (A') (A') (A') (A')
                 (A') (A') (A') (A') (A") (A") (A") (A") (A') (A')
                 (A') (A") (A") (A') (A") (A") (A') (A') (A") (A")
                 (A') (A') (A") (A') (A') (A") (A') (A") (A") (A')
                 (A') (A') (A') (A') (A') (A") (A") (A') (A') (A")
                 (A") (A') (A') (A') (A') (A') (A') (A") (A") (A")
                 (A") (A') (A') (A') (A") (A') (A') (A") (A') (A")
                 (A") (A') (A")
       Virtual   (A') (A') (A") (A') (A') (A') (A') (A") (A') (A')
                 (A") (A") (A') (A') (A') (A') (A") (A') (A') (A")
                 (A') (A') (A") (A") (A') (A') (A') (A') (A") (A')
                 (A') (A') (A") (A") (A') (A") (A') (A') (A") (A')
                 (A') (A') (A') (A') (A") (A") (A') (A') (A") (A")
                 (A') (A') (A') (A") (A") (A') (A') (A') (A") (A')
                 (A") (A') (A') (A") (A') (A") (A') (A') (A") (A')
                 (A") (A') (A") (A") (A") (A') (A') (A") (A') (A')
                 (A') (A") (A') (A") (A') (A") (A') (A") (A") (A')
                 (A') (A') (A") (A") (A') (A') (A') (A') (A') (A')
                 (A') (A") (A') (A') (A") (A') (A") (A") (A") (A')
                 (A") (A") (A') (A') (A") (A') (A") (A") (A') (A')
                 (A') (A') (A") (A") (A") (A') (A') (A') (A") (A')
                 (A") (A') (A") (A") (A') (A') (A') (A') (A") (A")
                 (A') (A") (A') (A") (A') (A") (A') (A') (A") (A')
                 (A') (A') (A") (A') (A") (A') (A") (A") (A') (A")
                 (A") (A') (A') (A") (A') (A") (A') (A') (A') (A")
                 (A") (A') (A') (A") (A") (A') (A') (A') (A') (A")
                 (A") (A") (A') (A') (A') (A") (A") (A') (A') (A')
                 (A") (A') (A') (A') (A") (A') (A') (A') (A") (A')
                 (A") (A') (A") (A') (A") (A") (A") (A') (A') (A")
                 (A') (A') (A") (A") (A') (A') (A") (A') (A") (A')
                 (A') (A") (A") (A') (A") (A") (A') (A') (A') (A')
                 (A") (A") (A") (A') (A') (A') (A') (A') (A') (A")
                 (A') (A') (A") (A') (A") (A") (A') (A") (A') (A")
                 (A') (A") (A') (A') (A') (A') (A") (A') (A') (A")
                 (A') (A") (A") (A') (A') (A") (A") (A') (A') (A')
                 (A") (A") (A") (A") (A') (A") (A') (A') (A") (A')
                 (A') (A") (A") (A') (A') (A') (A") (A') (A") (A")
                 (A') (A') (A') (A') (A") (A') (A") (A') (A') (A')
                 (A') (A') (A") (A') (A") (A") (A') (A") (A") (A')
                 (A") (A') (A") (A') (A') (A') (A") (A') (A') (A")
                 (A") (A') (A') (A") (A') (A") (A') (A') (A') (A')
                 (A") (A') (A") (A') (A") (A") (A') (A') (A") (A')
                 (A') (A") (A') (A') (A') (A") (A") (A') (A') (A')
                 (A') (A') (A') (A') (A') (A") (A") (A") (A') (A")
                 (A') (A') (A') (A') (A') (A') (A') (A") (A") (A')
                 (A') (A") (A') (A") (A') (A') (A") (A") (A') (A')
                 (A') (A') (A') (A') (A') (A') (A') (A") (A') (A")
                 (A') (A") (A") (A') (A") (A') (A') (A') (A') (A')
                 (A") (A') (A") (A') (A") (A') (A') (A') (A') (A')
                 (A') (A') (A') (A") (A') (A') (A') (A') (A') (A')
                 (A') (A') (A') (A') (A') (A') (A')
 The electronic state of the initial guess is 1-A'.
 Leave Link  401 at Thu Mar 17 02:15:40 2022, MaxMem=  4026531840 cpu:        90.5
 (Enter /scr/programs/g09/l502.exe)
 Closed shell SCF:
 Using DIIS extrapolation, IDIIS=  1040.
 Integral symmetry usage will be decided dynamically.
 IVT=     1284372 IEndB=     1284372 NGot=  4026531840 MDV=  4025695551
 LenX=  4025695551 LenY=  4025287869
 Requested convergence on RMS density matrix=1.00D-06 within 200 cycles.
 Requested convergence on MAX density matrix=1.00D-04.
 Requested convergence on             energy=1.00D-04.
 No special actions if energy rises.
 Fock matrices will be formed incrementally for  20 cycles.

 Cycle   1  Pass 1  IDiag  1:
 FoFJK:  IHMeth= 1 ICntrl=     500 DoSepK=F KAlg= 0 I1Cent=   0 FoldK=F
 IRaf= 730000000 NMat=   1 IRICut=       1 DoRegI=T DoRafI=F ISym2E= 1.
 FoFCou: FMM=F IPFlag=           0 FMFlag=      100000 FMFlg1=           0
         NFxFlg=           0 DoJE=T BraDBF=F KetDBF=F FulRan=T
         wScrn=  0.000000 ICntrl=     500 IOpCl=  0 I1Cent=           0 NGrid=           0
         NMat0=    1 NMatS0=      1 NMatT0=    0 NMatD0=    1 NMtDS0=    0 NMtDT0=    0
 Petite list used in FoFCou.
 Defaulting to unpruned grid for atomic number  78.
 Defaulting to unpruned grid for atomic number  78.
 Defaulting to unpruned grid for atomic number  78.
 Defaulting to unpruned grid for atomic number  78.
 Defaulting to unpruned grid for atomic number  78.
 Defaulting to unpruned grid for atomic number  78.
 Defaulting to unpruned grid for atomic number  78.
 Defaulting to unpruned grid for atomic number  78.
 Defaulting to unpruned grid for atomic number  78.
 Defaulting to unpruned grid for atomic number  78.
 Defaulting to unpruned grid for atomic number  78.
 Defaulting to unpruned grid for atomic number  78.
 Defaulting to unpruned grid for atomic number  78.
 Defaulting to unpruned grid for atomic number  78.
 Defaulting to unpruned grid for atomic number  78.
 Defaulting to unpruned grid for atomic number  78.
 Defaulting to unpruned grid for atomic number  78.
 Defaulting to unpruned grid for atomic number  78.
 Defaulting to unpruned grid for atomic number  78.
 Defaulting to unpruned grid for atomic number  78.
 Defaulting to unpruned grid for atomic number  78.
 Defaulting to unpruned grid for atomic number  78.
 Defaulting to unpruned grid for atomic number  78.
 Defaulting to unpruned grid for atomic number  78.
 Inv3:  Mode=1 IEnd=    10024752.
 Iteration    1 A*A^-1 deviation from unit magnitude is 7.11D-15 for    374.
 Iteration    1 A*A^-1 deviation from orthogonality  is 3.77D-15 for   1293    673.
 Iteration    1 A^-1*A deviation from unit magnitude is 7.88D-15 for    249.
 Iteration    1 A^-1*A deviation from orthogonality  is 1.05D-14 for    722    710.
 E= -27787.5668180908    
 DIIS: error= 8.35D-01 at cycle   1 NSaved=   1.
 NSaved= 1 IEnMin= 1 EnMin= -27787.5668180908     IErMin= 1 ErrMin= 8.35D-01
 ErrMax= 8.35D-01  0.00D+00 EMaxC= 1.00D-01 BMatC= 3.24D+02 BMatP= 3.24D+02
 IDIUse=3 WtCom= 0.00D+00 WtEn= 1.00D+00
 Coeff-Com:  0.100D+01
 Coeff-En:   0.100D+01
 Coeff:      0.100D+01
 Gap=    -0.160 Goal=   None    Shift=    0.000
 GapD=   -0.160 DampG=0.250 DampE=0.125 DampFc=0.1250 IDamp=-1.
 Damping current iteration by 1.25D-01
 RMSDP=1.20D-02 MaxDP=1.59D+00              OVMax= 9.71D-01

 Cycle   2  Pass 1  IDiag  1:
 RMSU=  1.48D-03    CP:  1.01D+00
 E= -27789.0582771022     Delta-E=       -1.491459011355 Rises=F Damp=T
 DIIS: error= 7.23D-01 at cycle   2 NSaved=   2.
 NSaved= 2 IEnMin= 2 EnMin= -27789.0582771022     IErMin= 2 ErrMin= 7.23D-01
 ErrMax= 7.23D-01  0.00D+00 EMaxC= 1.00D-01 BMatC= 2.31D+02 BMatP= 3.24D+02
 IDIUse=3 WtCom= 0.00D+00 WtEn= 1.00D+00
 Coeff-Com: -0.471D+01 0.571D+01
 Coeff-En:   0.000D+00 0.100D+01
 Coeff:      0.000D+00 0.100D+01
 Gap=     0.034 Goal=   None    Shift=    0.000
 RMSDP=4.96D-03 MaxDP=3.91D-01 DE=-1.49D+00 OVMax= 9.78D-01

 Cycle   3  Pass 1  IDiag  1:
 RMSU=  3.85D-03    CP:  1.04D+00  3.00D+00
 E= -27785.9250942295     Delta-E=        3.133182872705 Rises=F Damp=F
 DIIS: error= 3.03D-01 at cycle   3 NSaved=   3.
 NSaved= 3 IEnMin= 2 EnMin= -27789.0582771022     IErMin= 3 ErrMin= 3.03D-01
 ErrMax= 3.03D-01  0.00D+00 EMaxC= 1.00D-01 BMatC= 3.10D+01 BMatP= 2.31D+02
 IDIUse=3 WtCom= 0.00D+00 WtEn= 1.00D+00
 EnCoef did   100 forward-backward iterations
 Coeff-Com:  0.120D+01-0.117D+01 0.971D+00
 Coeff-En:   0.530D+00 0.240D-01 0.446D+00
 Coeff:      0.530D+00 0.240D-01 0.446D+00
 Gap=    -0.108 Goal=   None    Shift=    0.000
 RMSDP=5.07D-03 MaxDP=4.95D-01 DE= 3.13D+00 OVMax= 9.95D-01

 Cycle   4  Pass 1  IDiag  1:
 RMSU=  2.26D-03    CP:  1.01D+00  6.66D-01  2.83D-01
 E= -27792.8077868226     Delta-E=       -6.882692593164 Rises=F Damp=F
 DIIS: error= 5.41D-02 at cycle   4 NSaved=   4.
 NSaved= 4 IEnMin= 4 EnMin= -27792.8077868226     IErMin= 4 ErrMin= 5.41D-02
 ErrMax= 5.41D-02  0.00D+00 EMaxC= 1.00D-01 BMatC= 1.64D+00 BMatP= 3.10D+01
 IDIUse=3 WtCom= 4.59D-01 WtEn= 5.41D-01
 Coeff-Com: -0.299D+00 0.402D+00-0.323D-01 0.930D+00
 Coeff-En:   0.000D+00 0.000D+00 0.544D-01 0.946D+00
 Coeff:     -0.137D+00 0.184D+00 0.146D-01 0.938D+00
 Gap=    -0.123 Goal=   None    Shift=    0.000
 RMSDP=4.67D-03 MaxDP=3.43D-01 DE=-6.88D+00 OVMax= 8.99D-01

 Cycle   5  Pass 1  IDiag  1:
 RMSU=  3.00D-03    CP:  1.01D+00  1.85D+00  7.46D-01 -1.30D-01
 E= -27789.1235178472     Delta-E=        3.684268975456 Rises=F Damp=F
 DIIS: error= 8.25D-02 at cycle   5 NSaved=   5.
 NSaved= 5 IEnMin= 4 EnMin= -27792.8077868226     IErMin= 4 ErrMin= 5.41D-02
 ErrMax= 8.25D-02  0.00D+00 EMaxC= 1.00D-01 BMatC= 3.92D+00 BMatP= 1.64D+00
 IDIUse=2 WtCom= 0.00D+00 WtEn= 1.00D+00
 Coeff-En:   0.000D+00 0.000D+00 0.000D+00 0.833D+00 0.167D+00
 Coeff:      0.000D+00 0.000D+00 0.000D+00 0.833D+00 0.167D+00
 Gap=    -0.122 Goal=   None    Shift=    0.000
 RMSDP=3.30D-03 MaxDP=2.45D-01 DE= 3.68D+00 OVMax= 9.98D-01

 Cycle   6  Pass 1  IDiag  1:
 RMSU=  1.71D-03    CP:  1.01D+00  1.41D+00  4.61D-01  4.36D-01  2.80D-01
 E= -27792.5801851682     Delta-E=       -3.456667321043 Rises=F Damp=F
 DIIS: error= 5.57D-02 at cycle   6 NSaved=   6.
 NSaved= 6 IEnMin= 4 EnMin= -27792.8077868226     IErMin= 4 ErrMin= 5.41D-02
 ErrMax= 5.57D-02  0.00D+00 EMaxC= 1.00D-01 BMatC= 8.93D-01 BMatP= 1.64D+00
 IDIUse=3 WtCom= 4.43D-01 WtEn= 5.57D-01
 Coeff-Com:  0.881D-01-0.871D-01-0.462D-01 0.506D+00 0.921D-01 0.447D+00
 Coeff-En:   0.000D+00 0.000D+00 0.000D+00 0.571D+00 0.000D+00 0.429D+00
 Coeff:      0.390D-01-0.385D-01-0.205D-01 0.542D+00 0.408D-01 0.437D+00
 Gap=     0.042 Goal=   None    Shift=    0.000
 RMSDP=1.73D-03 MaxDP=1.19D-01 DE=-3.46D+00 OVMax= 3.64D-01

 Cycle   7  Pass 1  IDiag  1:
 RMSU=  9.14D-04    CP:  1.01D+00  8.31D-01  3.58D-01  5.74D-01  1.46D-01
                    CP:  4.12D-01
 E= -27793.1808350573     Delta-E=       -0.600649889078 Rises=F Damp=F
 DIIS: error= 1.74D-02 at cycle   7 NSaved=   7.
 NSaved= 7 IEnMin= 7 EnMin= -27793.1808350573     IErMin= 7 ErrMin= 1.74D-02
 ErrMax= 1.74D-02  0.00D+00 EMaxC= 1.00D-01 BMatC= 1.50D-01 BMatP= 8.93D-01
 IDIUse=3 WtCom= 8.26D-01 WtEn= 1.74D-01
 EnCoef did     5 forward-backward iterations
 Coeff-Com: -0.109D+00 0.130D+00-0.102D-01 0.158D+00-0.464D-01 0.270D+00
 Coeff-Com:  0.608D+00
 Coeff-En:   0.000D+00 0.000D+00 0.000D+00 0.134D-01 0.000D+00 0.167D+00
 Coeff-En:   0.819D+00
 Coeff:     -0.902D-01 0.107D+00-0.845D-02 0.133D+00-0.383D-01 0.252D+00
 Coeff:      0.645D+00
 Gap=     0.048 Goal=   None    Shift=    0.000
 RMSDP=5.44D-04 MaxDP=4.43D-02 DE=-6.01D-01 OVMax= 1.74D-01

 Cycle   8  Pass 1  IDiag  1:
 RMSU=  2.25D-04    CP:  1.01D+00  9.31D-01  3.79D-01  6.86D-01  1.44D-01
                    CP:  5.02D-01  6.12D-01
 E= -27793.2632834673     Delta-E=       -0.082448410009 Rises=F Damp=F
 DIIS: error= 7.71D-03 at cycle   8 NSaved=   8.
 NSaved= 8 IEnMin= 8 EnMin= -27793.2632834673     IErMin= 8 ErrMin= 7.71D-03
 ErrMax= 7.71D-03  0.00D+00 EMaxC= 1.00D-01 BMatC= 2.03D-02 BMatP= 1.50D-01
 IDIUse=3 WtCom= 9.23D-01 WtEn= 7.71D-02
 Coeff-Com: -0.316D-01 0.379D-01-0.865D-02 0.721D-01-0.157D-01 0.102D+00
 Coeff-Com:  0.323D+00 0.521D+00
 Coeff-En:   0.000D+00 0.000D+00 0.000D+00 0.000D+00 0.000D+00 0.000D+00
 Coeff-En:   0.124D+00 0.876D+00
 Coeff:     -0.292D-01 0.349D-01-0.798D-02 0.666D-01-0.145D-01 0.941D-01
 Coeff:      0.308D+00 0.548D+00
 Gap=     0.052 Goal=   None    Shift=    0.000
 RMSDP=1.72D-04 MaxDP=1.45D-02 DE=-8.24D-02 OVMax= 3.51D-02

 Cycle   9  Pass 1  IDiag  1:
 RMSU=  1.12D-04    CP:  1.01D+00  9.11D-01  3.66D-01  6.59D-01  1.46D-01
                    CP:  5.01D-01  6.08D-01  5.68D-01
 E= -27793.2714313754     Delta-E=       -0.008147908105 Rises=F Damp=F
 DIIS: error= 2.25D-03 at cycle   9 NSaved=   9.
 NSaved= 9 IEnMin= 9 EnMin= -27793.2714313754     IErMin= 9 ErrMin= 2.25D-03
 ErrMax= 2.25D-03  0.00D+00 EMaxC= 1.00D-01 BMatC= 2.68D-03 BMatP= 2.03D-02
 IDIUse=3 WtCom= 9.77D-01 WtEn= 2.25D-02
 Coeff-Com: -0.537D-02 0.656D-02-0.225D-02 0.244D-01-0.685D-02 0.340D-01
 Coeff-Com:  0.143D+00 0.352D+00 0.454D+00
 Coeff-En:   0.000D+00 0.000D+00 0.000D+00 0.000D+00 0.000D+00 0.000D+00
 Coeff-En:   0.000D+00 0.155D+00 0.845D+00
 Coeff:     -0.525D-02 0.641D-02-0.220D-02 0.239D-01-0.670D-02 0.332D-01
 Coeff:      0.140D+00 0.348D+00 0.463D+00
 Gap=     0.049 Goal=   None    Shift=    0.000
 RMSDP=5.90D-05 MaxDP=5.12D-03 DE=-8.15D-03 OVMax= 1.37D-02

 Cycle  10  Pass 1  IDiag  1:
 RMSU=  4.23D-05    CP:  1.01D+00  9.14D-01  3.68D-01  6.62D-01  1.46D-01
                    CP:  5.05D-01  6.00D-01  6.29D-01  6.84D-01
 E= -27793.2727195677     Delta-E=       -0.001288192230 Rises=F Damp=F
 DIIS: error= 1.09D-03 at cycle  10 NSaved=  10.
 NSaved=10 IEnMin=10 EnMin= -27793.2727195677     IErMin=10 ErrMin= 1.09D-03
 ErrMax= 1.09D-03  0.00D+00 EMaxC= 1.00D-01 BMatC= 5.32D-04 BMatP= 2.68D-03
 IDIUse=3 WtCom= 9.89D-01 WtEn= 1.09D-02
 Coeff-Com: -0.728D-03 0.884D-03-0.252D-03 0.359D-02-0.792D-03 0.640D-03
 Coeff-Com:  0.354D-01 0.108D+00 0.320D+00 0.534D+00
 Coeff-En:   0.000D+00 0.000D+00 0.000D+00 0.000D+00 0.000D+00 0.000D+00
 Coeff-En:   0.000D+00 0.000D+00 0.234D+00 0.766D+00
 Coeff:     -0.720D-03 0.874D-03-0.249D-03 0.355D-02-0.783D-03 0.633D-03
 Coeff:      0.351D-01 0.107D+00 0.319D+00 0.536D+00
 Gap=     0.050 Goal=   None    Shift=    0.000
 RMSDP=3.03D-05 MaxDP=2.00D-03 DE=-1.29D-03 OVMax= 4.66D-03

 Cycle  11  Pass 1  IDiag  1:
 RMSU=  1.46D-05    CP:  1.01D+00  9.10D-01  3.67D-01  6.67D-01  1.44D-01
                    CP:  4.96D-01  6.05D-01  6.31D-01  6.78D-01  6.10D-01
 E= -27793.2730607833     Delta-E=       -0.000341215622 Rises=F Damp=F
 DIIS: error= 1.77D-04 at cycle  11 NSaved=  11.
 NSaved=11 IEnMin=11 EnMin= -27793.2730607833     IErMin=11 ErrMin= 1.77D-04
 ErrMax= 1.77D-04  0.00D+00 EMaxC= 1.00D-01 BMatC= 1.76D-05 BMatP= 5.32D-04
 IDIUse=3 WtCom= 9.98D-01 WtEn= 1.77D-03
 Coeff-Com: -0.793D-04 0.100D-03-0.473D-04 0.892D-03-0.621D-04-0.127D-02
 Coeff-Com:  0.125D-01 0.248D-01 0.968D-01 0.205D+00 0.661D+00
 Coeff-En:   0.000D+00 0.000D+00 0.000D+00 0.000D+00 0.000D+00 0.000D+00
 Coeff-En:   0.000D+00 0.000D+00 0.000D+00 0.000D+00 0.100D+01
 Coeff:     -0.792D-04 0.100D-03-0.472D-04 0.890D-03-0.619D-04-0.126D-02
 Coeff:      0.125D-01 0.248D-01 0.966D-01 0.205D+00 0.662D+00
 Gap=     0.051 Goal=   None    Shift=    0.000
 RMSDP=9.63D-06 MaxDP=4.36D-04 DE=-3.41D-04 OVMax= 1.19D-03

 Cycle  12  Pass 1  IDiag  1:
 RMSU=  2.16D-06    CP:  1.01D+00  9.11D-01  3.67D-01  6.64D-01  1.44D-01
                    CP:  4.98D-01  6.07D-01  6.17D-01  7.02D-01  6.60D-01
                    CP:  7.38D-01
 E= -27793.2730704184     Delta-E=       -0.000009635136 Rises=F Damp=F
 DIIS: error= 1.02D-04 at cycle  12 NSaved=  12.
 NSaved=12 IEnMin=12 EnMin= -27793.2730704184     IErMin=12 ErrMin= 1.02D-04
 ErrMax= 1.02D-04  0.00D+00 EMaxC= 1.00D-01 BMatC= 2.81D-06 BMatP= 1.76D-05
 IDIUse=3 WtCom= 9.99D-01 WtEn= 1.02D-03
 Coeff-Com:  0.101D-03-0.109D-03 0.144D-04 0.331D-03 0.327D-04-0.107D-02
 Coeff-Com:  0.514D-02 0.566D-02 0.350D-01 0.818D-01 0.360D+00 0.514D+00
 Coeff-En:   0.000D+00 0.000D+00 0.000D+00 0.000D+00 0.000D+00 0.000D+00
 Coeff-En:   0.000D+00 0.000D+00 0.000D+00 0.000D+00 0.000D+00 0.100D+01
 Coeff:      0.101D-03-0.109D-03 0.144D-04 0.330D-03 0.326D-04-0.107D-02
 Coeff:      0.513D-02 0.565D-02 0.349D-01 0.817D-01 0.359D+00 0.514D+00
 Gap=     0.051 Goal=   None    Shift=    0.000
 RMSDP=3.51D-06 MaxDP=1.34D-04 DE=-9.64D-06 OVMax= 6.04D-04

 Cycle  13  Pass 1  IDiag  1:
 RMSU=  1.75D-06    CP:  1.01D+00  9.10D-01  3.67D-01  6.65D-01  1.44D-01
                    CP:  4.97D-01  6.07D-01  6.19D-01  6.97D-01  6.47D-01
                    CP:  7.66D-01  4.69D-01
 E= -27793.2730713737     Delta-E=       -0.000000955311 Rises=F Damp=F
 DIIS: error= 9.54D-05 at cycle  13 NSaved=  13.
 NSaved=13 IEnMin=13 EnMin= -27793.2730713737     IErMin=13 ErrMin= 9.54D-05
 ErrMax= 9.54D-05  0.00D+00 EMaxC= 1.00D-01 BMatC= 1.49D-06 BMatP= 2.81D-06
 IDIUse=1 WtCom= 1.00D+00 WtEn= 0.00D+00
 Coeff-Com:  0.825D-04-0.900D-04 0.180D-04 0.203D-03 0.347D-04-0.797D-03
 Coeff-Com:  0.330D-02 0.250D-02 0.204D-01 0.492D-01 0.238D+00 0.447D+00
 Coeff-Com:  0.240D+00
 Coeff:      0.825D-04-0.900D-04 0.180D-04 0.203D-03 0.347D-04-0.797D-03
 Coeff:      0.330D-02 0.250D-02 0.204D-01 0.492D-01 0.238D+00 0.447D+00
 Coeff:      0.240D+00
 Gap=     0.051 Goal=   None    Shift=    0.000
 RMSDP=1.41D-06 MaxDP=8.88D-05 DE=-9.55D-07 OVMax= 4.37D-04

 Cycle  14  Pass 1  IDiag  1:
 RMSU=  5.18D-07    CP:  1.01D+00  9.10D-01  3.67D-01  6.65D-01  1.44D-01
                    CP:  4.97D-01  6.08D-01  6.19D-01  6.95D-01  6.45D-01
                    CP:  7.67D-01  7.18D-01  3.61D-01
 E= -27793.2730724992     Delta-E=       -0.000001125496 Rises=F Damp=F
 DIIS: error= 8.86D-06 at cycle  14 NSaved=  14.
 NSaved=14 IEnMin=14 EnMin= -27793.2730724992     IErMin=14 ErrMin= 8.86D-06
 ErrMax= 8.86D-06  0.00D+00 EMaxC= 1.00D-01 BMatC= 2.91D-08 BMatP= 1.49D-06
 IDIUse=1 WtCom= 1.00D+00 WtEn= 0.00D+00
 Coeff-Com: -0.252D-04 0.298D-04 0.371D-05 0.514D-04 0.103D-04-0.162D-03
 Coeff-Com:  0.103D-02 0.703D-03 0.378D-02 0.846D-02 0.472D-01 0.133D+00
 Coeff-Com:  0.132D+00 0.673D+00
 Coeff:     -0.252D-04 0.298D-04 0.371D-05 0.514D-04 0.103D-04-0.162D-03
 Coeff:      0.103D-02 0.703D-03 0.378D-02 0.846D-02 0.472D-01 0.133D+00
 Coeff:      0.132D+00 0.673D+00
 Gap=     0.051 Goal=   None    Shift=    0.000
 RMSDP=3.47D-07 MaxDP=2.23D-05 DE=-1.13D-06 OVMax= 5.62D-05

 Error on total polarization charges =  0.03256
 SCF Done:  E(RPBE-PBE) =  -27793.2730725     A.U. after   14 cycles
            NFock= 14  Conv=0.35D-06     -V/T= 2.0125
 KE= 2.744955242465D+04 PE=-7.626714278267D+04 EE= 1.593277502733D+04
 Leave Link  502 at Thu Mar 17 02:21:06 2022, MaxMem=  4026531840 cpu:      7457.2
 (Enter /scr/programs/g09/l801.exe)
 Range of M.O.s used for correlation:     1   560
 NBasis=   560 NAE=   133 NBE=   133 NFC=     0 NFV=     0
 NROrb=    560 NOA=   133 NOB=   133 NVA=   427 NVB=   427

 **** Warning!!: The largest alpha MO coefficient is  0.37851908D+02


 **** Warning!!: The smallest alpha delta epsilon is  0.50657146D-01

 Leave Link  801 at Thu Mar 17 02:21:06 2022, MaxMem=  4026531840 cpu:         0.9
 (Enter /scr/programs/g09/l1002.exe)
 Minotr:  Closed shell wavefunction.
 NEqPCM:  Using equilibrium solvation (IEInf=0, Eps=  78.3553, EpsInf=   1.7778)
          Direct CPHF calculation.
          Differentiating once with respect to magnetic field using GIAOs.
          Electric field/nuclear overlap derivatives assumed to be zero.
          Using symmetry in CPHF.
          Requested convergence is 1.0D-08 RMS, and 1.0D-07 maximum.
          Secondary convergence is 1.0D-12 RMS, and 1.0D-12 maximum.
          NewPWx=T KeepS1=F KeepF1=F KeepIn=T MapXYZ=F SortEE=F KeepMc=T.
          MDV=    4026531188 using IRadAn=       2.
 Defaulting to unpruned grid for atomic number  78.
 Generate precomputed XC quadrature information.
          Solving linear equations simultaneously, MaxMat=       0.
 FoFJK:  IHMeth= 1 ICntrl=    6127 DoSepK=F KAlg= 0 I1Cent=   0 FoldK=F
 IRaf=         1 NMat=   1 IRICut=       1 DoRegI=T DoRafI=F ISym2E= 0.
 Defaulting to unpruned grid for atomic number  78.
 Defaulting to unpruned grid for atomic number  78.
 Defaulting to unpruned grid for atomic number  78.
 Defaulting to unpruned grid for atomic number  78.
 Defaulting to unpruned grid for atomic number  78.
 Defaulting to unpruned grid for atomic number  78.
 Defaulting to unpruned grid for atomic number  78.
 Defaulting to unpruned grid for atomic number  78.
 Defaulting to unpruned grid for atomic number  78.
 Defaulting to unpruned grid for atomic number  78.
 Defaulting to unpruned grid for atomic number  78.
 Defaulting to unpruned grid for atomic number  78.
 Defaulting to unpruned grid for atomic number  78.
 Defaulting to unpruned grid for atomic number  78.
 Defaulting to unpruned grid for atomic number  78.
 Defaulting to unpruned grid for atomic number  78.
 Defaulting to unpruned grid for atomic number  78.
 Defaulting to unpruned grid for atomic number  78.
 Defaulting to unpruned grid for atomic number  78.
 Defaulting to unpruned grid for atomic number  78.
 Defaulting to unpruned grid for atomic number  78.
 Defaulting to unpruned grid for atomic number  78.
 Defaulting to unpruned grid for atomic number  78.
 Defaulting to unpruned grid for atomic number  78.
          There are     3 degrees of freedom in the 1st order CPHF.  IDoFFX=0 NUNeed=     3.
      3 vectors produced by pass  0 Test12= 1.89D-12 3.33D-08 XBig12= 4.60D+01 4.02D+00.
 AX will form     3 AO Fock derivatives at one time.
 InvSVY:  IOpt=1 It=  1 EMax= 0.00D+00
 Solved reduced A of dimension     3 with     3 vectors.
 Calculating GIAO nuclear magnetic shielding tensors.
 SCF GIAO Magnetic shielding tensor (ppm):
      1  Pt   Isotropic =    67.7976   Anisotropy =  2099.4504
   XX=  -434.5377   YX=     1.1482   ZX=     0.0000
   XY=     2.6851   YY=  -829.5008   ZY=     0.0000
   XZ=     0.0000   YZ=     0.0000   ZZ=  1467.4312
   Eigenvalues:  -829.5101  -434.5284  1467.4312
      2  Br   Isotropic =  1567.6422   Anisotropy =  2059.8706
   XX=  1644.1184   YX= -1317.4065   ZX=     0.0000
   XY= -1288.0198   YY=  1632.2065   ZY=     0.0000
   XZ=     0.0000   YZ=     0.0000   ZZ=  1426.6016
   Eigenvalues:   335.4358  1426.6016  2940.8892
      3  Br   Isotropic =  1560.9156   Anisotropy =  2069.3680
   XX=  1622.3422   YX=  1325.0095   ZX=     0.0000
   XY=  1294.3053   YY=  1639.2770   ZY=     0.0000
   XZ=     0.0000   YZ=     0.0000   ZZ=  1421.1278
   Eigenvalues:   321.1248  1421.1278  2940.4943
      4  Br   Isotropic =  1560.7522   Anisotropy =  2069.5989
   XX=  1622.5673   YX=  1325.0380   ZX=     0.0000
   XY=  1294.4496   YY=  1638.8638   ZY=     0.0000
   XZ=     0.0000   YZ=     0.0000   ZZ=  1420.8254
   Eigenvalues:   320.9464  1420.8254  2940.4848
      5  N    Isotropic =  -207.3502   Anisotropy =   321.8683
   XX=     7.2287   YX=    -0.2422   ZX=    -0.0148
   XY=     0.0079   YY=  -399.3088   ZY=    -0.0076
   XZ=    -0.0139   YZ=    -0.0020   ZZ=  -229.9704
   Eigenvalues:  -399.3088  -229.9704     7.2287
      6  N    Isotropic =  -207.3502   Anisotropy =   321.8683
   XX=     7.2287   YX=    -0.2422   ZX=     0.0148
   XY=     0.0079   YY=  -399.3088   ZY=     0.0076
   XZ=     0.0139   YZ=     0.0020   ZZ=  -229.9704
   Eigenvalues:  -399.3088  -229.9704     7.2287
      7  O    Isotropic =  -424.3032   Anisotropy =   508.7578
   XX=   -85.1313   YX=     0.0544   ZX=     0.0661
   XY=     0.2578   YY=  -780.3821   ZY=    77.3341
   XZ=    -0.0777   YZ=  -115.4563   ZZ=  -407.3961
   Eigenvalues:  -781.3537  -406.4245   -85.1313
      8  O    Isotropic =  -424.3139   Anisotropy =   508.7867
   XX=   -85.1228   YX=     0.0628   ZX=    -0.1183
   XY=     0.2380   YY=  -780.4180   ZY=   -77.3297
   XZ=     0.0303   YZ=   115.4623   ZZ=  -407.4009
   Eigenvalues:  -781.3901  -406.4288   -85.1228
      9  O    Isotropic =  -424.3032   Anisotropy =   508.7578
   XX=   -85.1313   YX=     0.0544   ZX=    -0.0661
   XY=     0.2578   YY=  -780.3821   ZY=   -77.3341
   XZ=     0.0777   YZ=   115.4563   ZZ=  -407.3961
   Eigenvalues:  -781.3537  -406.4245   -85.1313
     10  O    Isotropic =  -424.3139   Anisotropy =   508.7867
   XX=   -85.1228   YX=     0.0628   ZX=     0.1183
   XY=     0.2380   YY=  -780.4180   ZY=    77.3297
   XZ=    -0.0303   YZ=  -115.4623   ZZ=  -407.4009
   Eigenvalues:  -781.3901  -406.4288   -85.1228
     11  Br   Isotropic =  1567.4588   Anisotropy =  2060.0631
   XX=  1644.3077   YX= -1317.4939   ZX=     0.0000
   XY= -1288.1696   YY=  1631.6665   ZY=     0.0000
   XZ=     0.0000   YZ=     0.0000   ZZ=  1426.4021
   Eigenvalues:   335.1400  1426.4021  2940.8342
 End of Minotr F.D. properties file   721 does not exist.
 End of Minotr F.D. properties file   722 does not exist.
 End of Minotr F.D. properties file   788 does not exist.
 Leave Link 1002 at Thu Mar 17 02:24:12 2022, MaxMem=  4026531840 cpu:      4434.8
 (Enter /scr/programs/g09/l601.exe)
 Copying SCF densities to generalized density rwf, IOpCl= 0 IROHF=0.

 **********************************************************************

            Population analysis using the SCF density.

 **********************************************************************

 Orbital symmetries:
       Occupied  (A') (A') (A') (A') (A') (A') (A") (A') (A') (A')
                 (A") (A') (A') (A') (A') (A") (A') (A") (A') (A')
                 (A') (A') (A') (A') (A') (A') (A') (A") (A') (A")
                 (A') (A") (A') (A") (A') (A') (A") (A') (A") (A")
                 (A') (A') (A') (A") (A') (A') (A") (A") (A') (A')
                 (A') (A') (A') (A') (A') (A') (A') (A") (A') (A")
                 (A') (A') (A") (A') (A") (A') (A") (A') (A") (A')
                 (A') (A") (A') (A') (A') (A') (A') (A") (A") (A")
                 (A') (A') (A") (A') (A') (A') (A') (A") (A") (A')
                 (A') (A") (A") (A") (A') (A') (A') (A") (A") (A')
                 (A') (A') (A') (A') (A') (A") (A') (A") (A') (A")
                 (A") (A') (A') (A') (A') (A") (A") (A") (A') (A')
                 (A') (A') (A") (A") (A') (A') (A') (A') (A") (A")
                 (A") (A') (A")
       Virtual   (A') (A') (A') (A") (A') (A') (A') (A") (A') (A')
                 (A") (A") (A') (A') (A') (A") (A') (A') (A') (A')
                 (A") (A') (A") (A') (A") (A') (A') (A') (A") (A')
                 (A') (A') (A") (A') (A") (A") (A') (A') (A") (A')
                 (A') (A') (A') (A") (A") (A') (A') (A") (A') (A')
                 (A") (A') (A") (A') (A") (A') (A') (A") (A') (A')
                 (A") (A') (A") (A') (A') (A") (A') (A') (A") (A')
                 (A") (A") (A') (A") (A") (A') (A') (A") (A') (A')
                 (A') (A") (A") (A") (A') (A") (A') (A') (A') (A")
                 (A') (A") (A') (A") (A') (A') (A') (A') (A') (A')
                 (A") (A') (A") (A") (A') (A') (A') (A") (A') (A")
                 (A") (A') (A') (A") (A") (A") (A') (A') (A') (A')
                 (A") (A") (A') (A") (A') (A") (A') (A') (A") (A")
                 (A") (A') (A') (A') (A") (A') (A') (A') (A") (A')
                 (A") (A') (A') (A") (A") (A') (A") (A') (A") (A')
                 (A") (A') (A') (A') (A") (A") (A") (A') (A") (A')
                 (A') (A") (A") (A') (A') (A") (A') (A') (A") (A')
                 (A") (A") (A') (A") (A') (A') (A') (A') (A') (A")
                 (A') (A") (A") (A') (A') (A") (A") (A') (A') (A')
                 (A") (A') (A') (A") (A') (A') (A') (A') (A") (A')
                 (A") (A') (A") (A') (A") (A") (A') (A") (A') (A")
                 (A') (A') (A") (A') (A") (A') (A") (A') (A') (A")
                 (A') (A") (A') (A") (A") (A") (A') (A') (A') (A')
                 (A") (A") (A") (A') (A') (A') (A') (A') (A") (A')
                 (A') (A") (A') (A') (A") (A") (A') (A") (A") (A')
                 (A') (A") (A') (A') (A") (A') (A') (A") (A') (A')
                 (A') (A") (A') (A") (A") (A') (A') (A") (A') (A')
                 (A') (A') (A") (A") (A") (A") (A") (A') (A') (A')
                 (A') (A") (A") (A') (A') (A") (A") (A') (A') (A")
                 (A') (A") (A") (A') (A") (A') (A') (A') (A') (A')
                 (A') (A") (A") (A') (A') (A") (A') (A') (A') (A")
                 (A") (A') (A") (A') (A") (A") (A') (A") (A') (A')
                 (A') (A') (A") (A") (A") (A') (A') (A') (A') (A')
                 (A") (A') (A") (A') (A") (A") (A') (A') (A") (A')
                 (A') (A") (A') (A') (A') (A") (A") (A') (A') (A')
                 (A') (A') (A') (A') (A') (A") (A") (A") (A') (A")
                 (A') (A') (A') (A') (A') (A') (A') (A") (A") (A')
                 (A') (A") (A') (A") (A') (A') (A") (A") (A') (A')
                 (A') (A') (A') (A') (A') (A') (A') (A") (A') (A")
                 (A') (A") (A") (A') (A") (A') (A') (A') (A') (A')
                 (A") (A') (A") (A') (A") (A') (A') (A') (A') (A')
                 (A') (A') (A') (A") (A') (A') (A') (A') (A') (A')
                 (A') (A') (A') (A') (A') (A') (A')
 The electronic state is 1-A'.
 Alpha  occ. eigenvalues -- **********-478.58394-478.58393-478.58392-478.58391
 Alpha  occ. eigenvalues -- -427.60173-414.93083-414.93081-414.93072 -99.98192
 Alpha  occ. eigenvalues --  -92.13856 -92.13852 -92.13834 -79.09780 -79.09778
 Alpha  occ. eigenvalues --  -79.09646 -79.09623 -79.09622 -61.50224 -61.50223
 Alpha  occ. eigenvalues --  -61.50223 -61.50222 -55.68718 -55.68717 -55.68717
 Alpha  occ. eigenvalues --  -55.68716 -55.68406 -55.68406 -55.68406 -55.68406
 Alpha  occ. eigenvalues --  -55.68405 -55.68405 -55.68404 -55.68404 -20.89645
 Alpha  occ. eigenvalues --  -18.78096 -18.78096 -18.78096 -18.78096 -17.46100
 Alpha  occ. eigenvalues --  -17.46090 -17.46056 -14.17284 -14.17284 -11.64541
 Alpha  occ. eigenvalues --  -11.64538 -11.64056 -11.63986 -11.63983  -8.33068
 Alpha  occ. eigenvalues --   -8.33067  -8.33066  -8.33065  -6.23972  -6.23972
 Alpha  occ. eigenvalues --   -6.23971  -6.23970  -6.23070  -6.23070  -6.23069
 Alpha  occ. eigenvalues --   -6.23069  -6.23068  -6.23068  -6.23067  -6.23067
 Alpha  occ. eigenvalues --   -3.19358  -3.19344  -3.19317  -3.19064  -3.19045
 Alpha  occ. eigenvalues --   -3.19031  -3.18676  -2.92350  -2.44894  -2.44893
 Alpha  occ. eigenvalues --   -2.44892  -2.44891  -2.44667  -2.44667  -2.44665
 Alpha  occ. eigenvalues --   -2.44665  -2.44665  -2.44664  -2.44664  -2.44663
 Alpha  occ. eigenvalues --   -2.44003  -2.44002  -2.44001  -2.44001  -2.44001
 Alpha  occ. eigenvalues --   -2.44000  -2.43999  -2.43998  -1.86325  -1.86295
 Alpha  occ. eigenvalues --   -1.86187  -1.12233  -1.12140  -0.95806  -0.95791
 Alpha  occ. eigenvalues --   -0.66776  -0.65605  -0.65567  -0.65419  -0.58113
 Alpha  occ. eigenvalues --   -0.56154  -0.48020  -0.46574  -0.45869  -0.45733
 Alpha  occ. eigenvalues --   -0.45232  -0.45047  -0.36766  -0.34710  -0.33971
 Alpha  occ. eigenvalues --   -0.32950  -0.31978  -0.27930  -0.27822  -0.27468
 Alpha  occ. eigenvalues --   -0.27462  -0.26072  -0.24205  -0.23831  -0.23582
 Alpha  occ. eigenvalues --   -0.23013  -0.22878  -0.22531  -0.22359  -0.22208
 Alpha  occ. eigenvalues --   -0.21372  -0.20843  -0.20463
 Alpha virt. eigenvalues --   -0.15397  -0.12272  -0.09137  -0.08030  -0.00209
 Alpha virt. eigenvalues --    0.00378   0.00533   0.01396   0.02554   0.02609
 Alpha virt. eigenvalues --    0.03019   0.03032   0.04175   0.04734   0.04756
 Alpha virt. eigenvalues --    0.05309   0.07395   0.07478   0.07895   0.08353
 Alpha virt. eigenvalues --    0.09476   0.10046   0.10242   0.11060   0.11339
 Alpha virt. eigenvalues --    0.11979   0.14669   0.14703   0.15119   0.16759
 Alpha virt. eigenvalues --    0.17057   0.17381   0.17730   0.17818   0.17847
 Alpha virt. eigenvalues --    0.18899   0.20003   0.20280   0.20466   0.20595
 Alpha virt. eigenvalues --    0.22489   0.22900   0.23742   0.24519   0.25249
 Alpha virt. eigenvalues --    0.25279   0.26061   0.26724   0.26937   0.29060
 Alpha virt. eigenvalues --    0.29381   0.30916   0.32506   0.33032   0.37370
 Alpha virt. eigenvalues --    0.37433   0.38334   0.39170   0.40687   0.41231
 Alpha virt. eigenvalues --    0.41548   0.44147   0.44634   0.45102   0.46138
 Alpha virt. eigenvalues --    0.47153   0.48174   0.50199   0.52537   0.55150
 Alpha virt. eigenvalues --    0.55791   0.57265   0.57708   0.57881   0.59879
 Alpha virt. eigenvalues --    0.59939   0.60846   0.61380   0.63525   0.64588
 Alpha virt. eigenvalues --    0.65697   0.66462   0.68281   0.69368   0.69448
 Alpha virt. eigenvalues --    0.69679   0.69882   0.71499   0.72325   0.72693
 Alpha virt. eigenvalues --    0.73178   0.74434   0.75973   0.76582   0.78068
 Alpha virt. eigenvalues --    0.78104   0.78155   0.81596   0.82812   0.83940
 Alpha virt. eigenvalues --    0.85248   0.85513   0.86570   0.86615   0.87290
 Alpha virt. eigenvalues --    0.87976   0.89770   0.89873   0.89960   0.90530
 Alpha virt. eigenvalues --    0.92206   0.92564   0.93111   0.93328   0.93775
 Alpha virt. eigenvalues --    0.95216   0.95987   0.96058   0.96235   0.97432
 Alpha virt. eigenvalues --    0.97495   0.98073   0.98093   1.01770   1.03141
 Alpha virt. eigenvalues --    1.03681   1.03760   1.04595   1.06422   1.07623
 Alpha virt. eigenvalues --    1.07807   1.09027   1.09352   1.10130   1.11090
 Alpha virt. eigenvalues --    1.14792   1.14801   1.15378   1.16891   1.17216
 Alpha virt. eigenvalues --    1.17680   1.19883   1.19915   1.20614   1.21040
 Alpha virt. eigenvalues --    1.21051   1.22373   1.23202   1.23679   1.23683
 Alpha virt. eigenvalues --    1.24344   1.24394   1.25741   1.26954   1.27508
 Alpha virt. eigenvalues --    1.27888   1.28482   1.30085   1.31083   1.31634
 Alpha virt. eigenvalues --    1.34028   1.34211   1.34313   1.36434   1.37820
 Alpha virt. eigenvalues --    1.38246   1.38638   1.39525   1.40027   1.40275
 Alpha virt. eigenvalues --    1.42580   1.43440   1.44348   1.44719   1.45795
 Alpha virt. eigenvalues --    1.46335   1.49289   1.50592   1.52725   1.53185
 Alpha virt. eigenvalues --    1.53419   1.54518   1.56052   1.58600   1.61959
 Alpha virt. eigenvalues --    1.63892   1.67824   1.69101   1.69857   1.70794
 Alpha virt. eigenvalues --    1.71944   1.72786   1.78668   1.81092   1.82856
 Alpha virt. eigenvalues --    1.88917   1.91315   1.91348   1.92887   1.97407
 Alpha virt. eigenvalues --    2.00777   2.35624   2.36540   2.39445   2.40608
 Alpha virt. eigenvalues --    2.42173   2.45516   2.47600   2.49778   2.51009
 Alpha virt. eigenvalues --    2.52388   2.54850   2.55506   2.57854   2.58701
 Alpha virt. eigenvalues --    2.60295   2.65082   2.66411   2.68760   2.69162
 Alpha virt. eigenvalues --    2.71923   2.73225   2.74746   2.78534   2.85726
 Alpha virt. eigenvalues --    2.86993   2.95352   3.05374   3.06903   3.11175
 Alpha virt. eigenvalues --    3.11516   3.12095   3.12122   3.13371   3.15212
 Alpha virt. eigenvalues --    3.18383   3.19742   3.21682   3.21803   3.25657
 Alpha virt. eigenvalues --    3.30503   3.33844   3.34028   3.42913   3.44039
 Alpha virt. eigenvalues --    3.55724   3.58279   3.66478   3.74620   3.75738
 Alpha virt. eigenvalues --    3.75985   3.77594   3.77930   3.79790   3.81196
 Alpha virt. eigenvalues --    3.84179   3.84420   3.94762   3.99018   4.04022
 Alpha virt. eigenvalues --    4.04043   4.06776   4.06892   4.07007   4.07520
 Alpha virt. eigenvalues --    4.10013   4.10019   4.11710   4.18125   4.25430
 Alpha virt. eigenvalues --    4.27630   4.28779   4.29497   4.30980   4.31316
 Alpha virt. eigenvalues --    4.31504   4.32470   4.32799   4.33137   4.33322
 Alpha virt. eigenvalues --    4.33356   4.33402   4.33498   4.35043   4.35188
 Alpha virt. eigenvalues --    4.35522   4.36314   4.37474   4.38672   4.39034
 Alpha virt. eigenvalues --    4.39505   4.39590   4.40067   4.40117   4.40224
 Alpha virt. eigenvalues --    4.41007   4.42064   4.42711   4.44808   4.45963
 Alpha virt. eigenvalues --    4.47213   4.49649   4.50038   4.51384   4.51892
 Alpha virt. eigenvalues --    5.37942   5.43143   5.63062   5.67229   5.80420
 Alpha virt. eigenvalues --    5.88327   5.89774   5.90145   5.90906   5.90985
 Alpha virt. eigenvalues --    5.92053   5.99390   6.01625   6.04255   6.04424
 Alpha virt. eigenvalues --    6.05575   6.05689   6.05701   6.10428   6.13183
 Alpha virt. eigenvalues --    6.13813   6.26499   6.27392   6.28829   6.39513
 Alpha virt. eigenvalues --    6.83634   6.90688   6.97044   6.99681   8.42287
 Alpha virt. eigenvalues --    8.42778   8.44003   8.45165   8.45969   8.46984
 Alpha virt. eigenvalues --    8.47125   8.52985   8.65394   8.81469   9.75921
 Alpha virt. eigenvalues --    9.77716   9.88648   9.96368  10.10406  14.03233
 Alpha virt. eigenvalues --   14.04246  14.10912  14.17177  20.28402  20.29229
 Alpha virt. eigenvalues --   20.29343  20.29388  20.30069  20.30857  20.31804
 Alpha virt. eigenvalues --   20.32379  20.35375  20.37481  20.40485  20.43829
 Alpha virt. eigenvalues --   20.88252  20.91456  21.00125  22.95449  23.01483
 Alpha virt. eigenvalues --   25.89553  30.12857  30.20877  30.27190  30.27716
 Alpha virt. eigenvalues --   42.81966  42.83233  42.90160  42.94782  43.02922
 Alpha virt. eigenvalues --   65.09249  65.09598  65.15781  65.21349  81.94197
 Alpha virt. eigenvalues --   86.02086  86.04759  86.11626 112.73193 112.73806
 Alpha virt. eigenvalues --  112.73819 112.74104 112.74312 112.74945 112.75516
 Alpha virt. eigenvalues --  112.75840 112.78153 112.79772 112.81702 112.83834
 Alpha virt. eigenvalues --  123.09097 123.16576 162.88535 162.96805 163.03835
 Alpha virt. eigenvalues --  163.04376 257.06407 282.44015 282.44141 282.49585
 Alpha virt. eigenvalues --  282.54427 428.63908 428.65989 428.71233 772.75562
 Alpha virt. eigenvalues -- 1043.608991043.609711043.657301043.699512068.36928
 Alpha virt. eigenvalues -- 5495.182015634.467545634.468245634.531705634.58790
 Alpha virt. eigenvalues -- ********************
          Condensed to atoms (all electrons):
               1          2          3          4          5          6
     1  Pt  78.053454   0.011390   0.011432   0.011533   0.026659   0.026659
     2  Br   0.011390  35.405901  -0.034919  -0.011746  -0.017629  -0.017629
     3  Br   0.011432  -0.034919  35.406061  -0.013915  -0.017656  -0.017656
     4  Br   0.011533  -0.011746  -0.013915  35.406029  -0.017658  -0.017658
     5  N    0.026659  -0.017629  -0.017656  -0.017658   5.875363  -0.011522
     6  N    0.026659  -0.017629  -0.017656  -0.017658  -0.011522   5.875363
     7  O    0.067727  -0.019704   0.000810  -0.019822   0.606935   0.000297
     8  O    0.067730   0.000808  -0.019829   0.000809   0.606931   0.000297
     9  O    0.067727  -0.019704   0.000810  -0.019822   0.000297   0.606935
    10  O    0.067730   0.000808  -0.019829   0.000809   0.000297   0.606931
    11  Br   0.011478  -0.013946  -0.011751  -0.034879  -0.017632  -0.017632
               7          8          9         10         11
     1  Pt   0.067727   0.067730   0.067727   0.067730   0.011478
     2  Br  -0.019704   0.000808  -0.019704   0.000808  -0.013946
     3  Br   0.000810  -0.019829   0.000810  -0.019829  -0.011751
     4  Br  -0.019822   0.000809  -0.019822   0.000809  -0.034879
     5  N    0.606935   0.606931   0.000297   0.000297  -0.017632
     6  N    0.000297   0.000297   0.606935   0.606931  -0.017632
     7  O    7.540456  -0.084209  -0.000006   0.000000   0.000807
     8  O   -0.084209   7.540445   0.000000  -0.000006  -0.019701
     9  O   -0.000006   0.000000   7.540456  -0.084209   0.000807
    10  O    0.000000  -0.000006  -0.084209   7.540445  -0.019701
    11  Br   0.000807  -0.019701   0.000807  -0.019701  35.405861
 Mulliken charges:
               1
     1  Pt  -0.423519
     2  Br  -0.283630
     3  Br  -0.283558
     4  Br  -0.283680
     5  N   -0.034384
     6  N   -0.034384
     7  O   -0.093291
     8  O   -0.093275
     9  O   -0.093291
    10  O   -0.093275
    11  Br  -0.283712
 Sum of Mulliken charges =  -2.00000
 Mulliken charges with hydrogens summed into heavy atoms:
               1
     1  Pt  -0.423519
     2  Br  -0.283630
     3  Br  -0.283558
     4  Br  -0.283680
     5  N   -0.034384
     6  N   -0.034384
     7  O   -0.093291
     8  O   -0.093275
     9  O   -0.093291
    10  O   -0.093275
    11  Br  -0.283712
 Electronic spatial extent (au):  <R**2>=           4823.3368
 Charge=             -2.0000 electrons
 Dipole moment (field-independent basis, Debye):
    X=             -0.0019    Y=             -0.0004    Z=              0.0000  Tot=              0.0020
 Quadrupole moment (field-independent basis, Debye-Ang):
   XX=           -166.1801   YY=           -173.7062   ZZ=           -174.3944
   XY=             -0.0107   XZ=              0.0000   YZ=              0.0000
 Traceless Quadrupole moment (field-independent basis, Debye-Ang):
   XX=              5.2468   YY=             -2.2793   ZZ=             -2.9675
   XY=             -0.0107   XZ=              0.0000   YZ=              0.0000
 Octapole moment (field-independent basis, Debye-Ang**2):
  XXX=             -0.0148  YYY=             -0.0021  ZZZ=              0.0000  XYY=             -0.0111
  XXY=             -0.0017  XXZ=              0.0000  XZZ=             -0.0038  YZZ=             -0.0017
  YYZ=              0.0000  XYZ=              0.0000
 Hexadecapole moment (field-independent basis, Debye-Ang**3):
 XXXX=          -1863.2056 YYYY=          -1934.4003 ZZZZ=          -1782.1776 XXXY=             -0.1784
 XXXZ=              0.0000 YYYX=             -0.4422 YYYZ=              0.0000 ZZZX=              0.0000
 ZZZY=              0.0000 XXYY=           -649.3416 XXZZ=           -540.4766 YYZZ=           -614.8762
 XXYZ=              0.0000 YYXZ=              0.0000 ZZXY=             -0.0801
 N-N= 5.091542258189D+03 E-N=-7.626715070260D+04  KE= 2.744955242465D+04
 Symmetry A'   KE= 2.231000020766D+04
 Symmetry A"   KE= 5.139552216993D+03
 Calculating spin-rotation constants.
 Leave Link  601 at Thu Mar 17 02:24:27 2022, MaxMem=  4026531840 cpu:       221.9
 (Enter /scr/programs/g09/l9999.exe)
 1\1\GINC-NEQC27\SP\RPBEPBE\Gen\Br4N2O4Pt1(2-)\GUEST\17-Mar-2022\0\\#PB
 EPBE/gen scf=(maxcycles=200,conver=6) NMR=GIAO Scrf=(solvent=water)\\e
 strutura 13\\-2,1\Pt,0,-0.000071,-0.000006,0.\Br,0,-1.828336,1.770804,
 0.\Br,0,-1.819346,-1.780658,0.\Br,0,1.81945,1.780711,0.\N,0,-0.000043,
 -0.000009,2.128902\N,0,-0.000043,-0.000009,-2.128902\O,0,-0.000043,1.0
 69374,2.717865\O,0,0.000043,-1.069418,2.717798\O,0,-0.000043,1.069374,
 -2.717865\O,0,0.000043,-1.069418,-2.717798\Br,0,1.828407,-1.77082,0.\\
 Version=EM64L-G09RevD.01\State=1-A'\HF=-27793.2730725\RMSD=3.474e-07\D
 ipole=-0.0007558,-0.000143,0.\Quadrupole=3.9008656,-1.6946038,-2.20626
 18,-0.0079299,0.,0.\PG=CS [SG(Br4Pt1),X(N2O4)]\\@


 MY DESCRIPTION OF EXPERIENCE IS NOT WHAT HAPPENS
 TO A MAN.  EXPERIENCE IS WHAT A MAN DOES WITH WHAT
 HAPPENS TO HIM.
                         - CHUCK KNOX, SEATTLE SEAHAWKS, 1985
 Job cpu time:       0 days  3 hours 28 minutes 24.2 seconds.
 File lengths (MBytes):  RWF=    237 Int=      0 D2E=      0 Chk=     19 Scr=      1
 Normal termination of Gaussian 09 at Thu Mar 17 02:24:28 2022.
