 Entering Gaussian System, Link 0=g09
 Input=estrutura61freq_LANL2DZ_TZVP.com
 Output=estrutura61freq_LANL2DZ_TZVP.log
 Initial command:
 /scr/programas/g09/l1.exe "/scr/diego/Gau-7651.inp" -scrdir="/scr/diego/"
 Entering Link 1 = /scr/programas/g09/l1.exe PID=      7653.
  
 Copyright (c) 1988,1990,1992,1993,1995,1998,2003,2009,2013,
            Gaussian, Inc.  All Rights Reserved.
  
 This is part of the Gaussian(R) 09 program.  It is based on
 the Gaussian(R) 03 system (copyright 2003, Gaussian, Inc.),
 the Gaussian(R) 98 system (copyright 1998, Gaussian, Inc.),
 the Gaussian(R) 94 system (copyright 1995, Gaussian, Inc.),
 the Gaussian 92(TM) system (copyright 1992, Gaussian, Inc.),
 the Gaussian 90(TM) system (copyright 1990, Gaussian, Inc.),
 the Gaussian 88(TM) system (copyright 1988, Gaussian, Inc.),
 the Gaussian 86(TM) system (copyright 1986, Carnegie Mellon
 University), and the Gaussian 82(TM) system (copyright 1983,
 Carnegie Mellon University). Gaussian is a federally registered
 trademark of Gaussian, Inc.
  
 This software contains proprietary and confidential information,
 including trade secrets, belonging to Gaussian, Inc.
  
 This software is provided under written license and may be
 used, copied, transmitted, or stored only in accord with that
 written license.
  
 The following legend is applicable only to US Government
 contracts under FAR:
  
                    RESTRICTED RIGHTS LEGEND
  
 Use, reproduction and disclosure by the US Government is
 subject to restrictions as set forth in subparagraphs (a)
 and (c) of the Commercial Computer Software - Restricted
 Rights clause in FAR 52.227-19.
  
 Gaussian, Inc.
 340 Quinnipiac St., Bldg. 40, Wallingford CT 06492
  
  
 ---------------------------------------------------------------
 Warning -- This program may not be used in any manner that
 competes with the business of Gaussian, Inc. or will provide
 assistance to any competitor of Gaussian, Inc.  The licensee
 of this program is prohibited from giving any competitor of
 Gaussian, Inc. access to this program.  By using this program,
 the user acknowledges that Gaussian, Inc. is engaged in the
 business of creating and licensing software in the field of
 computational chemistry and represents and warrants to the
 licensee that it is not a competitor of Gaussian, Inc. and that
 it will not use this program in any manner prohibited above.
 ---------------------------------------------------------------
  

 Cite this work as:
 Gaussian 09, Revision D.01,
 M. J. Frisch, G. W. Trucks, H. B. Schlegel, G. E. Scuseria, 
 M. A. Robb, J. R. Cheeseman, G. Scalmani, V. Barone, B. Mennucci, 
 G. A. Petersson, H. Nakatsuji, M. Caricato, X. Li, H. P. Hratchian, 
 A. F. Izmaylov, J. Bloino, G. Zheng, J. L. Sonnenberg, M. Hada, 
 M. Ehara, K. Toyota, R. Fukuda, J. Hasegawa, M. Ishida, T. Nakajima, 
 Y. Honda, O. Kitao, H. Nakai, T. Vreven, J. A. Montgomery, Jr., 
 J. E. Peralta, F. Ogliaro, M. Bearpark, J. J. Heyd, E. Brothers, 
 K. N. Kudin, V. N. Staroverov, T. Keith, R. Kobayashi, J. Normand, 
 K. Raghavachari, A. Rendell, J. C. Burant, S. S. Iyengar, J. Tomasi, 
 M. Cossi, N. Rega, J. M. Millam, M. Klene, J. E. Knox, J. B. Cross, 
 V. Bakken, C. Adamo, J. Jaramillo, R. Gomperts, R. E. Stratmann, 
 O. Yazyev, A. J. Austin, R. Cammi, C. Pomelli, J. W. Ochterski, 
 R. L. Martin, K. Morokuma, V. G. Zakrzewski, G. A. Voth, 
 P. Salvador, J. J. Dannenberg, S. Dapprich, A. D. Daniels, 
 O. Farkas, J. B. Foresman, J. V. Ortiz, J. Cioslowski, 
 and D. J. Fox, Gaussian, Inc., Wallingford CT, 2013.
 
 ******************************************
 Gaussian 09:  EM64L-G09RevD.01 24-Apr-2013
                30-Oct-2021 
 ******************************************
 %mem=15Gb
 %nproc=4
 Will use up to    4 processors via shared memory.
 ----------------------------------------------------------
 #PBEPBE/gen scf=maxcycle=200 NMR=GIAO Scrf=(solvent=water)
 ----------------------------------------------------------
 1/38=1/1;
 2/12=2,17=6,18=5,40=1/2;
 3/5=7,11=2,16=1,25=1,30=1,70=2201,72=1,74=1009/1,2,8,3;
 4//1;
 5/5=2,7=200,38=5,53=1/2;
 8/6=1,10=90,11=11/1;
 10/13=100,45=16/2;
 6/7=2,8=2,9=2,10=2,28=1/1;
 99/9=1/99;
 Leave Link    1 at Sat Oct 30 08:31:52 2021, MaxMem=  2013265920 cpu:         0.2
 (Enter /scr/programas/g09/l101.exe)
 ------------
 estrutura 61
 ------------
 Symbolic Z-matrix:
 Charge = -2 Multiplicity = 1
 Pt                   -0.19663  -0.01426  -0.06986 
 N                     0.3374   -1.57322  -1.43619 
 O                     1.34769  -1.46716  -2.10791 
 O                    -0.39984  -2.54459  -1.50105 
 N                     0.13906   1.51922  -1.52188 
 O                    -0.68947   2.41334  -1.59795 
 O                     1.12731   1.47478  -2.2325 
 Cl                   -2.4532   -0.17916  -0.86169 
 N                    -0.74863   1.55005   1.28336 
 N                    -0.55056  -1.55239   1.37247 
 O                     0.25687  -2.4666    1.43941 
 O                    -1.54097  -1.49486   2.07844 
 O                    -0.02789   2.53457   1.34035 
 O                    -1.76451   1.43828   1.94493 
 Br                    2.18078   0.15572   0.7801 
 
 NAtoms=     15 NQM=       15 NQMF=       0 NMMI=      0 NMMIF=      0
                NMic=       0 NMicF=      0.
                    Isotopes and Nuclear Properties:
 (Nuclear quadrupole moments (NQMom) in fm**2, nuclear magnetic moments (NMagM)
  in nuclear magnetons)

  Atom         1           2           3           4           5           6           7           8           9          10
 IAtWgt=         195          14          16          16          14          16          16          35          14          14
 AtmWgt= 194.9648000  14.0030740  15.9949146  15.9949146  14.0030740  15.9949146  15.9949146  34.9688527  14.0030740  14.0030740
 NucSpn=           1           2           0           0           2           0           0           3           2           2
 AtZEff=   0.0000000   0.0000000   0.0000000   0.0000000   0.0000000   0.0000000   0.0000000   0.0000000   0.0000000   0.0000000
 NQMom=    0.0000000   2.0440000   0.0000000   0.0000000   2.0440000   0.0000000   0.0000000  -8.1650000   2.0440000   2.0440000
 NMagM=    0.6095000   0.4037610   0.0000000   0.0000000   0.4037610   0.0000000   0.0000000   0.8218740   0.4037610   0.4037610
 AtZNuc=  78.0000000   7.0000000   8.0000000   8.0000000   7.0000000   8.0000000   8.0000000  17.0000000   7.0000000   7.0000000

  Atom        11          12          13          14          15
 IAtWgt=          16          16          16          16          79
 AtmWgt=  15.9949146  15.9949146  15.9949146  15.9949146  78.9183361
 NucSpn=           0           0           0           0           3
 AtZEff=   0.0000000   0.0000000   0.0000000   0.0000000   0.0000000
 NQMom=    0.0000000   0.0000000   0.0000000   0.0000000  31.3000000
 NMagM=    0.0000000   0.0000000   0.0000000   0.0000000   2.1063990
 AtZNuc=   8.0000000   8.0000000   8.0000000   8.0000000  35.0000000
 Leave Link  101 at Sat Oct 30 08:31:52 2021, MaxMem=  2013265920 cpu:         0.4
 (Enter /scr/programas/g09/l202.exe)
                          Input orientation:                          
 ---------------------------------------------------------------------
 Center     Atomic      Atomic             Coordinates (Angstroms)
 Number     Number       Type             X           Y           Z
 ---------------------------------------------------------------------
      1         78           0       -0.196633   -0.014256   -0.069857
      2          7           0        0.337395   -1.573224   -1.436194
      3          8           0        1.347686   -1.467160   -2.107906
      4          8           0       -0.399840   -2.544593   -1.501049
      5          7           0        0.139056    1.519217   -1.521881
      6          8           0       -0.689474    2.413344   -1.597953
      7          8           0        1.127308    1.474777   -2.232503
      8         17           0       -2.453203   -0.179160   -0.861691
      9          7           0       -0.748631    1.550047    1.283364
     10          7           0       -0.550558   -1.552391    1.372465
     11          8           0        0.256874   -2.466602    1.439414
     12          8           0       -1.540968   -1.494862    2.078435
     13          8           0       -0.027886    2.534573    1.340350
     14          8           0       -1.764509    1.438284    1.944929
     15         35           0        2.180784    0.155716    0.780102
 ---------------------------------------------------------------------
                    Distance matrix (angstroms):
                    1          2          3          4          5
     1  Pt   0.000000
     2  N    2.140664   0.000000
     3  O    2.941002   1.217840   0.000000
     4  O    2.914139   1.221179   2.140791   0.000000
     5  N    2.138364   3.099979   3.274547   4.099438   0.000000
     6  O    2.910535   4.119873   4.412299   4.967335   1.221357
     7  O    2.940591   3.247827   2.952810   4.361484   1.218031
     8  Cl   2.397145   3.171893   4.202232   3.196928   3.168618
     9  N    2.140783   4.281386   4.999880   4.963939   2.942505
    10  N    2.138087   2.945753   3.965297   3.043725   4.276398
    11  O    2.915059   3.012263   3.843466   3.013914   4.966881
    12  O    2.935062   3.985851   5.086309   3.900873   4.986926
    13  O    2.917823   4.971582   5.458620   5.831794   3.041576
    14  O    2.937256   4.991911   5.878166   5.440625   3.955867
    15  Br   2.530500   3.361441   3.415899   4.376636   3.365548
                    6          7          8          9         10
     6  O    0.000000
     7  O    2.141088   0.000000
     8  Cl   3.220854   4.175487   0.000000
     9  N    3.008450   3.985741   3.239905   0.000000
    10  N    4.956787   4.997477   3.239950   3.110031   0.000000
    11  O    5.825379   5.456656   4.227528   4.143532   1.221561
    12  O    5.432766   5.875597   3.347773   3.245213   1.217627
    13  O    3.014303   3.901656   4.253880   1.221480   4.120375
    14  O    3.828636   5.080834   3.311728   1.217443   3.278037
    15  Br   4.357799   3.453335   4.927622   3.283124   3.275477
                   11         12         13         14         15
    11  O    0.000000
    12  O    2.141229   0.000000
    13  O    5.010255   4.366982   0.000000
    14  O    4.426022   2.944680   2.140847   0.000000
    15  Br   3.318535   4.273349   3.294095   4.308960   0.000000
 Stoichiometry    BrClN4O8Pt(2-)
 Framework group  C1[X(BrClN4O8Pt)]
 Deg. of freedom    39
 Full point group                 C1      NOp   1
 Largest Abelian subgroup         C1      NOp   1
 Largest concise Abelian subgroup C1      NOp   1
                         Standard orientation:                         
 ---------------------------------------------------------------------
 Center     Atomic      Atomic             Coordinates (Angstroms)
 Number     Number       Type             X           Y           Z
 ---------------------------------------------------------------------
      1         78           0       -0.196633    0.014256    0.069857
      2          7           0        0.337397    1.573224    1.436194
      3          8           0        1.347688    1.467158    2.107906
      4          8           0       -0.399836    2.544594    1.501049
      5          7           0        0.139054   -1.519217    1.521881
      6          8           0       -0.689477   -2.413343    1.597953
      7          8           0        1.127306   -1.474779    2.232503
      8         17           0       -2.453203    0.179164    0.861691
      9          7           0       -0.748633   -1.550046   -1.283364
     10          7           0       -0.550556    1.552392   -1.372465
     11          8           0        0.256878    2.466602   -1.439414
     12          8           0       -1.540966    1.494864   -2.078435
     13          8           0       -0.027890   -2.534573   -1.340350
     14          8           0       -1.764511   -1.438281   -1.944929
     15         35           0        2.180784   -0.155719   -0.780102
 ---------------------------------------------------------------------
 Rotational constants (GHZ):      0.3964103      0.3714805      0.3534545
 Leave Link  202 at Sat Oct 30 08:31:52 2021, MaxMem=  2013265920 cpu:         0.0
 (Enter /scr/programas/g09/l301.exe)
 General basis read from cards:  (5D, 7F)
 Centers:       2      5      9     10
 S 6 1.00
     Exponent=  1.2238326969D+04 Coefficients=  5.6000000000D-04
     Exponent=  4.0794423230D+03 Coefficients=  7.7000000000D-04
     Exponent=  1.3598141077D+03 Coefficients=  4.0600000000D-03
     Exponent=  4.5327136922D+02 Coefficients=  1.3910000000D-02
     Exponent=  1.5109045641D+02 Coefficients=  5.2990000000D-02
     Exponent=  5.0363485469D+01 Coefficients=  1.6952000000D-01
 S 1 1.00
     Exponent=  1.6787828490D+01 Coefficients=  1.0000000000D+00
 S 1 1.00
     Exponent=  5.5959428299D+00 Coefficients=  1.0000000000D+00
 S 1 1.00
     Exponent=  1.8653142766D+00 Coefficients=  1.0000000000D+00
 S 1 1.00
     Exponent=  6.2177142554D-01 Coefficients=  1.0000000000D+00
 S 1 1.00
     Exponent=  2.0725714185D-01 Coefficients=  1.0000000000D+00
 P 4 1.00
     Exponent=  5.4142548249D+01 Coefficients=  3.9700000000D-03
     Exponent=  1.6659245615D+01 Coefficients=  1.9540000000D-02
     Exponent=  5.1259217277D+00 Coefficients=  9.9790000000D-02
     Exponent=  1.5772066854D+00 Coefficients=  3.2845000000D-01
 P 1 1.00
     Exponent=  4.8529436475D-01 Coefficients=  1.0000000000D+00
 P 1 1.00
     Exponent=  1.4932134300D-01 Coefficients=  1.0000000000D+00
 D 1 1.00
     Exponent=  4.7700000000D-01 Coefficients=  1.0000000000D+00
 D 1 1.00
     Exponent=  1.5026000000D-01 Coefficients=  1.0000000000D+00
 ****
 Centers:       3      4      6      7     11     12     13     14
 S 6 1.00
     Exponent=  1.6178118231D+04 Coefficients=  6.0000000000D-04
     Exponent=  5.3927060771D+03 Coefficients=  7.8000000000D-04
     Exponent=  1.7975686924D+03 Coefficients=  4.1000000000D-03
     Exponent=  5.9918956413D+02 Coefficients=  1.3880000000D-02
     Exponent=  1.9972985471D+02 Coefficients=  5.2770000000D-02
     Exponent=  6.6576618236D+01 Coefficients=  1.6924000000D-01
 S 1 1.00
     Exponent=  2.2192206079D+01 Coefficients=  1.0000000000D+00
 S 1 1.00
     Exponent=  7.3974020263D+00 Coefficients=  1.0000000000D+00
 S 1 1.00
     Exponent=  2.4658006754D+00 Coefficients=  1.0000000000D+00
 S 1 1.00
     Exponent=  8.2193355847D-01 Coefficients=  1.0000000000D+00
 S 1 1.00
     Exponent=  2.7397785282D-01 Coefficients=  1.0000000000D+00
 P 4 1.00
     Exponent=  7.3854398670D+01 Coefficients=  4.0200000000D-03
     Exponent=  2.2724430360D+01 Coefficients=  2.0130000000D-02
     Exponent=  6.9921324184D+00 Coefficients=  1.0470000000D-01
     Exponent=  2.1514253595D+00 Coefficients=  3.3605000000D-01
 P 1 1.00
     Exponent=  6.6197703370D-01 Coefficients=  1.0000000000D+00
 P 1 1.00
     Exponent=  2.0368524114D-01 Coefficients=  1.0000000000D+00
 D 1 1.00
     Exponent=  9.2880000000D-01 Coefficients=  1.0000000000D+00
 D 1 1.00
     Exponent=  2.2975000000D-01 Coefficients=  1.0000000000D+00
 ****
 Centers:       8
 S 7 1.00
     Exponent=  7.7142817164D+04 Coefficients=  1.0600000000D-03
     Exponent=  2.8051933514D+04 Coefficients=  6.4000000000D-04
     Exponent=  1.0200703096D+04 Coefficients=  3.9600000000D-03
     Exponent=  3.7093465804D+03 Coefficients=  9.8300000000D-03
     Exponent=  1.3488533020D+03 Coefficients=  3.2690000000D-02
     Exponent=  4.9049210981D+02 Coefficients=  9.9520000000D-02
     Exponent=  1.7836076720D+02 Coefficients=  2.6555000000D-01
 S 1 1.00
     Exponent=  6.4858460801D+01 Coefficients=  1.0000000000D+00
 S 1 1.00
     Exponent=  2.3584894837D+01 Coefficients=  1.0000000000D+00
 S 1 1.00
     Exponent=  8.5763253951D+00 Coefficients=  1.0000000000D+00
 S 1 1.00
     Exponent=  3.1186637801D+00 Coefficients=  1.0000000000D+00
 S 1 1.00
     Exponent=  1.1340595564D+00 Coefficients=  1.0000000000D+00
 S 1 1.00
     Exponent=  4.1238529323D-01 Coefficients=  1.0000000000D+00
 S 1 1.00
     Exponent=  1.4995828845D-01 Coefficients=  1.0000000000D+00
 S 1 1.00
     Exponent=  5.4530286708D-02 Coefficients=  1.0000000000D+00
 P 5 1.00
     Exponent=  6.9498536057D+02 Coefficients=  2.0000000000D-03
     Exponent=  2.3166178686D+02 Coefficients=  8.9500000000D-03
     Exponent=  7.7220595619D+01 Coefficients=  5.1130000000D-02
     Exponent=  2.5740198540D+01 Coefficients=  2.1011000000D-01
     Exponent=  8.5800661799D+00 Coefficients=  4.9738000000D-01
 P 1 1.00
     Exponent=  2.8600220600D+00 Coefficients=  1.0000000000D+00
 P 1 1.00
     Exponent=  9.5334068665D-01 Coefficients=  1.0000000000D+00
 P 1 1.00
     Exponent=  3.1778022888D-01 Coefficients=  1.0000000000D+00
 P 1 1.00
     Exponent=  1.0592674296D-01 Coefficients=  1.0000000000D+00
 P 1 1.00
     Exponent=  3.5308914320D-02 Coefficients=  1.0000000000D+00
 D 1 1.00
     Exponent=  5.5696000000D-01 Coefficients=  1.0000000000D+00
 D 1 1.00
     Exponent=  1.5619100000D-01 Coefficients=  1.0000000000D+00
 ****
 Centers:      15
 S 7 1.00
     Exponent=  3.4867099512D+05 Coefficients=  2.4100000000D-03
     Exponent=  1.3946839805D+05 Coefficients=  1.2000000000D-04
     Exponent=  5.5787359218D+04 Coefficients=  5.8500000000D-03
     Exponent=  2.2314943687D+04 Coefficients=  8.2100000000D-03
     Exponent=  8.9259774750D+03 Coefficients=  2.4090000000D-02
     Exponent=  3.5703909900D+03 Coefficients=  5.7250000000D-02
     Exponent=  1.4281563960D+03 Coefficients=  1.4467000000D-01
 S 1 1.00
     Exponent=  5.7126255840D+02 Coefficients=  1.0000000000D+00
 S 1 1.00
     Exponent=  2.2850502336D+02 Coefficients=  1.0000000000D+00
 S 1 1.00
     Exponent=  9.1402009344D+01 Coefficients=  1.0000000000D+00
 S 1 1.00
     Exponent=  3.6560803737D+01 Coefficients=  1.0000000000D+00
 S 1 1.00
     Exponent=  1.4624321495D+01 Coefficients=  1.0000000000D+00
 S 1 1.00
     Exponent=  5.8497285980D+00 Coefficients=  1.0000000000D+00
 S 1 1.00
     Exponent=  2.3398914392D+00 Coefficients=  1.0000000000D+00
 S 1 1.00
     Exponent=  9.3595657568D-01 Coefficients=  1.0000000000D+00
 S 1 1.00
     Exponent=  3.7438263027D-01 Coefficients=  1.0000000000D+00
 S 1 1.00
     Exponent=  1.4975305211D-01 Coefficients=  1.0000000000D+00
 S 1 1.00
     Exponent=  5.9901220843D-02 Coefficients=  1.0000000000D+00
 P 5 1.00
     Exponent=  4.2715043612D+03 Coefficients=  2.0900000000D-03
     Exponent=  1.5532743132D+03 Coefficients=  5.5700000000D-03
     Exponent=  5.6482702297D+02 Coefficients=  3.0250000000D-02
     Exponent=  2.0539164472D+02 Coefficients=  1.2196000000D-01
     Exponent=  7.4687870806D+01 Coefficients=  3.7861000000D-01
 P 1 1.00
     Exponent=  2.7159225748D+01 Coefficients=  1.0000000000D+00
 P 1 1.00
     Exponent=  9.8760820901D+00 Coefficients=  1.0000000000D+00
 P 1 1.00
     Exponent=  3.5913025782D+00 Coefficients=  1.0000000000D+00
 P 1 1.00
     Exponent=  1.3059282103D+00 Coefficients=  1.0000000000D+00
 P 1 1.00
     Exponent=  4.7488298555D-01 Coefficients=  1.0000000000D+00
 P 1 1.00
     Exponent=  1.7268472202D-01 Coefficients=  1.0000000000D+00
 P 1 1.00
     Exponent=  6.2794444370D-02 Coefficients=  1.0000000000D+00
 P 1 1.00
     Exponent=  2.2834343407D-02 Coefficients=  1.0000000000D+00
 D 4 1.00
     Exponent=  1.5776624282D+02 Coefficients=  7.9800000000D-03
     Exponent=  5.2588747607D+01 Coefficients=  4.9870000000D-02
     Exponent=  1.7529582536D+01 Coefficients=  2.2405000000D-01
     Exponent=  5.8431941786D+00 Coefficients=  4.4250000000D-01
 D 1 1.00
     Exponent=  1.9477313929D+00 Coefficients=  1.0000000000D+00
 D 1 1.00
     Exponent=  6.4924379762D-01 Coefficients=  1.0000000000D+00
 F 1 1.00
     Exponent=  1.6480000000D+00 Coefficients=  1.0000000000D+00
 F 1 1.00
     Exponent=  4.5490000000D-01 Coefficients=  1.0000000000D+00
 ****
 Centers:       1
 S 9 1.00
     Exponent=  2.1644816090D+06 Coefficients=  1.2320000000D-02
     Exponent=  1.0822408045D+06 Coefficients=  1.2970000000D-02
     Exponent=  5.4112040224D+05 Coefficients=  2.6370000000D-02
     Exponent=  2.7056020112D+05 Coefficients=  9.0400000000D-03
     Exponent=  1.3528010056D+05 Coefficients=  3.4980000000D-02
     Exponent=  6.7640050280D+04 Coefficients=  1.2220000000D-02
     Exponent=  3.3820025140D+04 Coefficients=  6.0520000000D-02
     Exponent=  1.6910012570D+04 Coefficients=  6.4930000000D-02
     Exponent=  8.4550062850D+03 Coefficients=  1.3819000000D-01
 S 1 1.00
     Exponent=  4.2275031425D+03 Coefficients=  1.0000000000D+00
 S 1 1.00
     Exponent=  2.1137515713D+03 Coefficients=  1.0000000000D+00
 S 1 1.00
     Exponent=  1.0568757856D+03 Coefficients=  1.0000000000D+00
 S 1 1.00
     Exponent=  5.2843789281D+02 Coefficients=  1.0000000000D+00
 S 1 1.00
     Exponent=  2.6421894641D+02 Coefficients=  1.0000000000D+00
 S 1 1.00
     Exponent=  1.3210947320D+02 Coefficients=  1.0000000000D+00
 S 1 1.00
     Exponent=  6.6054736602D+01 Coefficients=  1.0000000000D+00
 S 1 1.00
     Exponent=  3.3027368301D+01 Coefficients=  1.0000000000D+00
 S 1 1.00
     Exponent=  1.6513684150D+01 Coefficients=  1.0000000000D+00
 S 1 1.00
     Exponent=  8.2568420752D+00 Coefficients=  1.0000000000D+00
 S 1 1.00
     Exponent=  4.1284210376D+00 Coefficients=  1.0000000000D+00
 S 1 1.00
     Exponent=  2.0642105188D+00 Coefficients=  1.0000000000D+00
 S 1 1.00
     Exponent=  1.0321052594D+00 Coefficients=  1.0000000000D+00
 S 1 1.00
     Exponent=  5.1605262970D-01 Coefficients=  1.0000000000D+00
 S 1 1.00
     Exponent=  2.5802631485D-01 Coefficients=  1.0000000000D+00
 S 1 1.00
     Exponent=  1.2901315743D-01 Coefficients=  1.0000000000D+00
 S 1 1.00
     Exponent=  6.4506578713D-02 Coefficients=  1.0000000000D+00
 P 7 1.00
     Exponent=  3.2357915258D+04 Coefficients=  5.0200000000D-03
     Exponent=  1.4381295670D+04 Coefficients=  2.0200000000D-03
     Exponent=  6.3916869645D+03 Coefficients=  1.8070000000D-02
     Exponent=  2.8407497620D+03 Coefficients=  3.6620000000D-02
     Exponent=  1.2625554498D+03 Coefficients=  1.1172000000D-01
     Exponent=  5.6113575545D+02 Coefficients=  2.5586000000D-01
     Exponent=  2.4939366909D+02 Coefficients=  4.2608000000D-01
 P 1 1.00
     Exponent=  1.1084163071D+02 Coefficients=  1.0000000000D+00
 P 1 1.00
     Exponent=  4.9262946981D+01 Coefficients=  1.0000000000D+00
 P 1 1.00
     Exponent=  2.1894643103D+01 Coefficients=  1.0000000000D+00
 P 1 1.00
     Exponent=  9.7309524900D+00 Coefficients=  1.0000000000D+00
 P 1 1.00
     Exponent=  4.3248677733D+00 Coefficients=  1.0000000000D+00
 P 1 1.00
     Exponent=  1.9221634548D+00 Coefficients=  1.0000000000D+00
 P 1 1.00
     Exponent=  8.5429486881D-01 Coefficients=  1.0000000000D+00
 P 1 1.00
     Exponent=  3.7968660836D-01 Coefficients=  1.0000000000D+00
 P 1 1.00
     Exponent=  1.6874960372D-01 Coefficients=  1.0000000000D+00
 P 1 1.00
     Exponent=  7.4999823874D-02 Coefficients=  1.0000000000D+00
 P 1 1.00
     Exponent=  3.3333255055D-02 Coefficients=  1.0000000000D+00
 D 5 1.00
     Exponent=  1.9119003508D+03 Coefficients=  4.3300000000D-03
     Exponent=  7.6476014031D+02 Coefficients=  1.7780000000D-02
     Exponent=  3.0590405613D+02 Coefficients=  8.9710000000D-02
     Exponent=  1.2236162245D+02 Coefficients=  3.1123000000D-01
     Exponent=  4.8944648980D+01 Coefficients=  5.3206000000D-01
 D 1 1.00
     Exponent=  1.9577859592D+01 Coefficients=  1.0000000000D+00
 D 1 1.00
     Exponent=  7.8311438368D+00 Coefficients=  1.0000000000D+00
 D 1 1.00
     Exponent=  3.1324575347D+00 Coefficients=  1.0000000000D+00
 D 1 1.00
     Exponent=  1.2529830139D+00 Coefficients=  1.0000000000D+00
 D 1 1.00
     Exponent=  5.0119320556D-01 Coefficients=  1.0000000000D+00
 D 1 1.00
     Exponent=  2.0047728222D-01 Coefficients=  1.0000000000D+00
 D 1 1.00
     Exponent=  8.0190912889D-02 Coefficients=  1.0000000000D+00
 D 1 1.00
     Exponent=  3.2076365156D-02 Coefficients=  1.0000000000D+00
 F 4 1.00
     Exponent=  8.2289680979D+01 Coefficients=  6.1870000000D-02
     Exponent=  2.9923520356D+01 Coefficients=  2.4823000000D-01
     Exponent=  1.0881280130D+01 Coefficients=  4.9956000000D-01
     Exponent=  3.9568291380D+00 Coefficients=  4.0380000000D-01
 F 1 1.00
     Exponent=  1.4388469593D+00 Coefficients=  1.0000000000D+00
 F 1 1.00
     Exponent=  5.2321707610D-01 Coefficients=  1.0000000000D+00
 G 1 1.00
     Exponent=  2.6700000000D+00 Coefficients=  1.0000000000D+00
 G 1 1.00
     Exponent=  9.0960000000D-01 Coefficients=  1.0000000000D+00
 ****
 Ernie: Thresh=  0.10000D-02 Tol=  0.10000D-05 Strict=F.
 There are   608 symmetry adapted cartesian basis functions of A   symmetry.
 There are   543 symmetry adapted basis functions of A   symmetry.
   543 basis functions,   910 primitive gaussians,   608 cartesian basis functions
   112 alpha electrons      112 beta electrons
       nuclear repulsion energy      3746.4363596652 Hartrees.
 IExCor= 1009 DFT=T Ex=PBE Corr=PBE ExCW=0 ScaHFX=  0.000000
 ScaDFX=  1.000000  1.000000  1.000000  1.000000 ScalE2=  1.000000  1.000000
 IRadAn=      0 IRanWt=     -1 IRanGd=            0 ICorTp=0 IEmpDi=  4
 NAtoms=   15 NActive=   15 NUniq=   15 SFac= 1.00D+00 NAtFMM=   60 NAOKFM=F Big=F
 Integral buffers will be    131072 words long.
 Raffenetti 2 integral format.
 Two-electron integral symmetry is turned on.
 ------------------------------------------------------------------------------
 Polarizable Continuum Model (PCM)
 =================================
 Model                : PCM (using non-symmetric T matrix).
 Atomic radii         : UFF (Universal Force Field).
 Polarization charges : Total charges.
 Charge compensation  : None.
 Solution method      : On-the-fly selection.
 Cavity type          : Scaled VdW (van der Waals Surface) (Alpha=1.100).
 Cavity algorithm     : GePol (No added spheres)
                        Default sphere list used, NSphG=   15.
                        Lebedev-Laikov grids with approx.  5.0 points / Ang**2.
                        Smoothing algorithm: Karplus/York (Gamma=1.0000).
                        Polarization charges: spherical gaussians, with
                                              point-specific exponents (IZeta= 3).
                        Self-potential: point-specific (ISelfS= 7).
                        Self-field    : sphere-specific E.n sum rule (ISelfD= 2).
 Solvent              : Water, Eps=  78.355300 Eps(inf)=   1.777849
 ------------------------------------------------------------------------------
 Spheres list:
 ISph  on   Nord     Re0    Alpha      Xe            Ye            Ze
    1  Pt      1    1.3770  1.100     -0.196633      0.014256      0.069857
    2   N      2    1.8300  1.100      0.337397      1.573224      1.436194
    3   O      3    1.7500  1.100      1.347688      1.467158      2.107906
    4   O      4    1.7500  1.100     -0.399836      2.544594      1.501049
    5   N      5    1.8300  1.100      0.139054     -1.519217      1.521881
    6   O      6    1.7500  1.100     -0.689477     -2.413343      1.597953
    7   O      7    1.7500  1.100      1.127306     -1.474779      2.232503
    8  Cl      8    1.9735  1.100     -2.453203      0.179164      0.861691
    9   N      9    1.8300  1.100     -0.748633     -1.550046     -1.283364
   10   N     10    1.8300  1.100     -0.550556      1.552392     -1.372465
   11   O     11    1.7500  1.100      0.256878      2.466602     -1.439414
   12   O     12    1.7500  1.100     -1.540966      1.494864     -2.078435
   13   O     13    1.7500  1.100     -0.027890     -2.534573     -1.340350
   14   O     14    1.7500  1.100     -1.764511     -1.438281     -1.944929
   15  Br     15    2.0945  1.100      2.180784     -0.155719     -0.780102
 ------------------------------------------------------------------------------
 GePol: Number of generator spheres                  =      15
 GePol: Total number of spheres                      =      15
 GePol: Number of exposed spheres                    =      14 ( 93.33%)
 GePol: Number of points                             =    1855
 GePol: Average weight of points                     =       0.14
 GePol: Minimum weight of points                     =   0.29D-06
 GePol: Maximum weight of points                     =    0.21616
 GePol: Number of points with low weight             =      57
 GePol: Fraction of low-weight points (<1% of avg)   =       3.07%
 GePol: Cavity surface area                          =    259.256 Ang**2
 GePol: Cavity volume                                =    283.890 Ang**3
 Leave Link  301 at Sat Oct 30 08:31:52 2021, MaxMem=  2013265920 cpu:         0.8
 (Enter /scr/programas/g09/l302.exe)
 NPDir=0 NMtPBC=     1 NCelOv=     1 NCel=       1 NClECP=     1 NCelD=      1
         NCelK=      1 NCelE2=     1 NClLst=     1 CellRange=     0.0.
 One-electron integrals computed using PRISM.
 NBasis=   543 RedAO= T EigKep=  3.83D-05  NBF=   543
 NBsUse=   543 1.00D-06 EigRej= -1.00D+00 NBFU=   543
 Precomputing XC quadrature grid using
 IXCGrd= 4 IRadAn=           0 IRanWt=          -1 IRanGd=           0 AccXCQ= 0.00D+00.
 Defaulting to unpruned grid for atomic number  78.
 Generated NRdTot=       0 NPtTot=           0 NUsed=           0 NTot=          32
 NSgBfM=   561   561   562   562   562 MxSgAt=    15 MxSgA2=    15.
 Leave Link  302 at Sat Oct 30 08:31:53 2021, MaxMem=  2013265920 cpu:         4.0
 (Enter /scr/programas/g09/l308.exe)
 Leave Link  308 at Sat Oct 30 08:31:54 2021, MaxMem=  2013265920 cpu:         0.7
 (Enter /scr/programas/g09/l303.exe)
 DipDrv:  MaxL=1.
 Leave Link  303 at Sat Oct 30 08:31:54 2021, MaxMem=  2013265920 cpu:         0.4
 (Enter /scr/programas/g09/l401.exe)
 ExpMin= 2.28D-02 ExpMax= 2.16D+06 ExpMxC= 2.16D+06 IAcc=4 IRadAn=    199590 AccDes= 0.00D+00
 Harris functional with IExCor= 1009 and IRadAn=  199590 diagonalized for initial guess.
 HarFok:  IExCor= 1009 AccDes= 0.00D+00 IRadAn=    199590 IDoV= 1 UseB2=F ITyADJ=14
 ICtDFT=  3500011 ScaDFX=  1.000000  1.000000  1.000000  1.000000
 FoFCou: FMM=F IPFlag=           0 FMFlag=      100000 FMFlg1=           0
         NFxFlg=           0 DoJE=T BraDBF=F KetDBF=T FulRan=T
         wScrn=  0.000000 ICntrl=     500 IOpCl=  0 I1Cent=   200000004 NGrid=           0
         NMat0=    1 NMatS0=      1 NMatT0=    0 NMatD0=    1 NMtDS0=    0 NMtDT0=    0
 Petite list used in FoFCou.
 Harris En= -20973.0651404868    
 JPrj=0 DoOrth=F DoCkMO=F.
 Leave Link  401 at Sat Oct 30 08:32:25 2021, MaxMem=  2013265920 cpu:       125.2
 (Enter /scr/programas/g09/l502.exe)
 Closed shell SCF:
 Using DIIS extrapolation, IDIIS=  1040.
 Integral symmetry usage will be decided dynamically.
 IVT=     1159606 IEndB=     1159606 NGot=  2013265920 MDV=  2012516987
 LenX=  2012516987 LenY=  2012146715
 Requested convergence on RMS density matrix=1.00D-08 within 200 cycles.
 Requested convergence on MAX density matrix=1.00D-06.
 Requested convergence on             energy=1.00D-06.
 No special actions if energy rises.
 Fock matrices will be formed incrementally for  20 cycles.

 Cycle   1  Pass 1  IDiag  1:
 FoFJK:  IHMeth= 1 ICntrl=     500 DoSepK=F KAlg= 0 I1Cent=   0 FoldK=F
 IRaf= 770000000 NMat=   1 IRICut=       1 DoRegI=T DoRafI=F ISym2E= 0.
 FoFCou: FMM=F IPFlag=           0 FMFlag=      100000 FMFlg1=           0
         NFxFlg=           0 DoJE=T BraDBF=F KetDBF=F FulRan=T
         wScrn=  0.000000 ICntrl=     500 IOpCl=  0 I1Cent=           0 NGrid=           0
         NMat0=    1 NMatS0=      1 NMatT0=    0 NMatD0=    1 NMtDS0=    0 NMtDT0=    0
 Symmetry not used in FoFCou.
 Defaulting to unpruned grid for atomic number  78.
 Defaulting to unpruned grid for atomic number  78.
 Defaulting to unpruned grid for atomic number  78.
 Defaulting to unpruned grid for atomic number  78.
 Inv3:  Mode=1 IEnd=    10323075.
 Iteration    1 A*A^-1 deviation from unit magnitude is 8.66D-15 for    174.
 Iteration    1 A*A^-1 deviation from orthogonality  is 6.53D-15 for   1124    174.
 Iteration    1 A^-1*A deviation from unit magnitude is 7.99D-15 for    169.
 Iteration    1 A^-1*A deviation from orthogonality  is 3.69D-14 for   1278   1272.
 E= -20953.4998883717    
 DIIS: error= 8.58D-01 at cycle   1 NSaved=   1.
 NSaved= 1 IEnMin= 1 EnMin= -20953.4998883717     IErMin= 1 ErrMin= 8.58D-01
 ErrMax= 8.58D-01  0.00D+00 EMaxC= 1.00D-01 BMatC= 3.19D+02 BMatP= 3.19D+02
 IDIUse=3 WtCom= 0.00D+00 WtEn= 1.00D+00
 Coeff-Com:  0.100D+01
 Coeff-En:   0.100D+01
 Coeff:      0.100D+01
 Gap=     1.151 Goal=   None    Shift=    0.000
 GapD=    1.151 DampG=2.000 DampE=0.125 DampFc=0.2500 IDamp=-1.
 Damping current iteration by 2.50D-01
 RMSDP=1.55D-02 MaxDP=1.81D+00              OVMax= 7.99D-01

 Cycle   2  Pass 1  IDiag  1:
 RMSU=  3.85D-03    CP:  1.03D+00
 E= -20954.9576343595     Delta-E=       -1.457745987846 Rises=F Damp=T
 DIIS: error= 6.39D-01 at cycle   2 NSaved=   2.
 NSaved= 2 IEnMin= 2 EnMin= -20954.9576343595     IErMin= 2 ErrMin= 6.39D-01
 ErrMax= 6.39D-01  0.00D+00 EMaxC= 1.00D-01 BMatC= 1.52D+02 BMatP= 3.19D+02
 IDIUse=3 WtCom= 0.00D+00 WtEn= 1.00D+00
 Coeff-Com: -0.178D+01 0.278D+01
 Coeff-En:   0.296D+00 0.704D+00
 Coeff:      0.296D+00 0.704D+00
 Gap=    -0.001 Goal=   None    Shift=    0.000
 RMSDP=4.36D-03 MaxDP=4.19D-01 DE=-1.46D+00 OVMax= 7.46D-01

 Cycle   3  Pass 1  IDiag  1:
 RMSU=  4.13D-03    CP:  1.03D+00  6.40D-01
 E= -20955.9284020487     Delta-E=       -0.970767689196 Rises=F Damp=F
 DIIS: error= 1.50D-01 at cycle   3 NSaved=   3.
 NSaved= 3 IEnMin= 3 EnMin= -20955.9284020487     IErMin= 3 ErrMin= 1.50D-01
 ErrMax= 1.50D-01  0.00D+00 EMaxC= 1.00D-01 BMatC= 1.97D+01 BMatP= 1.52D+02
 IDIUse=3 WtCom= 0.00D+00 WtEn= 1.00D+00
 EnCoef did   100 forward-backward iterations
 Coeff-Com:  0.706D+00-0.764D+00 0.106D+01
 Coeff-En:   0.402D+00 0.631D-02 0.591D+00
 Coeff:      0.402D+00 0.631D-02 0.591D+00
 Gap=     0.060 Goal=   None    Shift=    0.000
 RMSDP=3.90D-03 MaxDP=3.44D-01 DE=-9.71D-01 OVMax= 5.77D-01

 Cycle   4  Pass 1  IDiag  1:
 RMSU=  2.08D-03    CP:  1.01D+00  2.26D-01  3.10D-01
 E= -20958.2108981655     Delta-E=       -2.282496116724 Rises=F Damp=F
 DIIS: error= 5.06D-02 at cycle   4 NSaved=   4.
 NSaved= 4 IEnMin= 4 EnMin= -20958.2108981655     IErMin= 4 ErrMin= 5.06D-02
 ErrMax= 5.06D-02  0.00D+00 EMaxC= 1.00D-01 BMatC= 2.54D+00 BMatP= 1.97D+01
 IDIUse=3 WtCom= 4.94D-01 WtEn= 5.06D-01
 Coeff-Com:  0.541D-01-0.114D-01 0.265D+00 0.692D+00
 Coeff-En:   0.000D+00 0.000D+00 0.333D+00 0.667D+00
 Coeff:      0.267D-01-0.562D-02 0.299D+00 0.679D+00
 Gap=     0.249 Goal=   None    Shift=    0.000
 RMSDP=3.48D-03 MaxDP=1.67D-01 DE=-2.28D+00 OVMax= 5.23D-01

 Cycle   5  Pass 1  IDiag  1:
 RMSU=  1.96D-03    CP:  1.01D+00  3.99D-01  6.85D-01 -1.17D-01
 E= -20957.3535967967     Delta-E=        0.857301368764 Rises=F Damp=F
 DIIS: error= 4.31D-02 at cycle   5 NSaved=   5.
 NSaved= 5 IEnMin= 4 EnMin= -20958.2108981655     IErMin= 5 ErrMin= 4.31D-02
 ErrMax= 4.31D-02  0.00D+00 EMaxC= 1.00D-01 BMatC= 2.89D+00 BMatP= 2.54D+00
 IDIUse=2 WtCom= 0.00D+00 WtEn= 1.00D+00
 EnCoef did     9 forward-backward iterations
 Coeff-En:   0.000D+00 0.000D+00 0.566D-01 0.571D+00 0.372D+00
 Coeff:      0.000D+00 0.000D+00 0.566D-01 0.571D+00 0.372D+00
 Gap=    -0.002 Goal=   None    Shift=    0.000
 RMSDP=2.75D-03 MaxDP=1.41D-01 DE= 8.57D-01 OVMax= 5.36D-01

 Cycle   6  Pass 1  IDiag  1:
 RMSU=  1.52D-03    CP:  1.01D+00  4.01D-01  6.65D-01  3.99D-01 -3.50D-02
 E= -20958.6878528122     Delta-E=       -1.334256015525 Rises=F Damp=F
 DIIS: error= 3.61D-02 at cycle   6 NSaved=   6.
 NSaved= 6 IEnMin= 6 EnMin= -20958.6878528122     IErMin= 6 ErrMin= 3.61D-02
 ErrMax= 3.61D-02  0.00D+00 EMaxC= 1.00D-01 BMatC= 1.52D+00 BMatP= 2.54D+00
 IDIUse=3 WtCom= 6.39D-01 WtEn= 3.61D-01
 EnCoef did     3 forward-backward iterations
 Coeff-Com: -0.389D-01 0.607D-01-0.173D-01 0.392D+00 0.318D+00 0.286D+00
 Coeff-En:   0.000D+00 0.000D+00 0.000D+00 0.399D+00 0.273D+00 0.327D+00
 Coeff:     -0.248D-01 0.388D-01-0.111D-01 0.394D+00 0.302D+00 0.301D+00
 Gap=     0.081 Goal=   None    Shift=    0.000
 RMSDP=2.02D-03 MaxDP=1.21D-01 DE=-1.33D+00 OVMax= 4.30D-01

 Cycle   7  Pass 1  IDiag  1:
 RMSU=  9.60D-04    CP:  1.01D+00  2.46D-01  4.78D-01  3.75D-01  1.79D-01
                    CP:  6.25D-02
 E= -20959.4795486301     Delta-E=       -0.791695817898 Rises=F Damp=F
 DIIS: error= 2.47D-02 at cycle   7 NSaved=   7.
 NSaved= 7 IEnMin= 7 EnMin= -20959.4795486301     IErMin= 7 ErrMin= 2.47D-02
 ErrMax= 2.47D-02  0.00D+00 EMaxC= 1.00D-01 BMatC= 3.19D-01 BMatP= 1.52D+00
 IDIUse=3 WtCom= 7.53D-01 WtEn= 2.47D-01
 Coeff-Com: -0.107D+00 0.144D+00-0.585D-01 0.120D+00 0.118D+00 0.237D+00
 Coeff-Com:  0.547D+00
 Coeff-En:   0.000D+00 0.000D+00 0.000D+00 0.000D+00 0.000D+00 0.271D+00
 Coeff-En:   0.729D+00
 Coeff:     -0.804D-01 0.109D+00-0.441D-01 0.904D-01 0.887D-01 0.245D+00
 Coeff:      0.592D+00
 Gap=     0.147 Goal=   None    Shift=    0.000
 RMSDP=1.01D-03 MaxDP=5.49D-02 DE=-7.92D-01 OVMax= 2.13D-01

 Cycle   8  Pass 1  IDiag  1:
 RMSU=  6.08D-04    CP:  1.01D+00  3.28D-01  5.73D-01  4.53D-01  3.00D-01
                    CP:  2.27D-01  4.66D-01
 E= -20959.6674676716     Delta-E=       -0.187919041498 Rises=F Damp=F
 DIIS: error= 9.32D-03 at cycle   8 NSaved=   8.
 NSaved= 8 IEnMin= 8 EnMin= -20959.6674676716     IErMin= 8 ErrMin= 9.32D-03
 ErrMax= 9.32D-03  0.00D+00 EMaxC= 1.00D-01 BMatC= 9.24D-02 BMatP= 3.19D-01
 IDIUse=3 WtCom= 9.07D-01 WtEn= 9.32D-02
 Coeff-Com: -0.474D-01 0.625D-01-0.357D-01 0.393D-01 0.274D-01 0.148D+00
 Coeff-Com:  0.420D+00 0.386D+00
 Coeff-En:   0.000D+00 0.000D+00 0.000D+00 0.000D+00 0.000D+00 0.000D+00
 Coeff-En:   0.268D+00 0.732D+00
 Coeff:     -0.430D-01 0.567D-01-0.323D-01 0.356D-01 0.248D-01 0.134D+00
 Coeff:      0.406D+00 0.418D+00
 Gap=     0.066 Goal=   None    Shift=    0.000
 RMSDP=5.41D-04 MaxDP=2.25D-02 DE=-1.88D-01 OVMax= 9.75D-02

 Cycle   9  Pass 1  IDiag  1:
 RMSU=  2.94D-04    CP:  1.01D+00  3.06D-01  5.43D-01  4.68D-01  1.99D-01
                    CP:  3.25D-01  5.96D-01  4.64D-01
 E= -20959.7118292212     Delta-E=       -0.044361549550 Rises=F Damp=F
 DIIS: error= 7.25D-03 at cycle   9 NSaved=   9.
 NSaved= 9 IEnMin= 9 EnMin= -20959.7118292212     IErMin= 9 ErrMin= 7.25D-03
 ErrMax= 7.25D-03  0.00D+00 EMaxC= 1.00D-01 BMatC= 3.33D-02 BMatP= 9.24D-02
 IDIUse=3 WtCom= 9.28D-01 WtEn= 7.25D-02
 EnCoef did     4 forward-backward iterations
 Coeff-Com: -0.157D-01 0.204D-01-0.145D-01 0.117D-01-0.306D-02 0.565D-01
 Coeff-Com:  0.226D+00 0.378D+00 0.340D+00
 Coeff-En:   0.000D+00 0.000D+00 0.000D+00 0.000D+00 0.000D+00 0.000D+00
 Coeff-En:   0.292D-01 0.321D+00 0.650D+00
 Coeff:     -0.146D-01 0.189D-01-0.135D-01 0.109D-01-0.284D-02 0.524D-01
 Coeff:      0.212D+00 0.374D+00 0.363D+00
 Gap=     0.069 Goal=   None    Shift=    0.000
 RMSDP=2.67D-04 MaxDP=1.14D-02 DE=-4.44D-02 OVMax= 6.14D-02

 Cycle  10  Pass 1  IDiag  1:
 RMSU=  1.36D-04    CP:  1.01D+00  3.05D-01  5.41D-01  4.60D-01  2.13D-01
                    CP:  2.90D-01  6.03D-01  5.95D-01  2.99D-01
 E= -20959.7328893396     Delta-E=       -0.021060118401 Rises=F Damp=F
 DIIS: error= 2.86D-03 at cycle  10 NSaved=  10.
 NSaved=10 IEnMin=10 EnMin= -20959.7328893396     IErMin=10 ErrMin= 2.86D-03
 ErrMax= 2.86D-03  0.00D+00 EMaxC= 1.00D-01 BMatC= 6.70D-03 BMatP= 3.33D-02
 IDIUse=3 WtCom= 9.71D-01 WtEn= 2.86D-02
 Coeff-Com: -0.488D-02 0.654D-02-0.245D-02 0.261D-02-0.608D-02 0.392D-02
 Coeff-Com:  0.700D-01 0.200D+00 0.323D+00 0.408D+00
 Coeff-En:   0.000D+00 0.000D+00 0.000D+00 0.000D+00 0.000D+00 0.000D+00
 Coeff-En:   0.000D+00 0.000D+00 0.220D+00 0.780D+00
 Coeff:     -0.474D-02 0.636D-02-0.238D-02 0.254D-02-0.590D-02 0.381D-02
 Coeff:      0.680D-01 0.194D+00 0.320D+00 0.418D+00
 Gap=     0.064 Goal=   None    Shift=    0.000
 RMSDP=1.04D-04 MaxDP=4.63D-03 DE=-2.11D-02 OVMax= 1.77D-02

 Cycle  11  Pass 1  IDiag  1:
 RMSU=  5.24D-05    CP:  1.01D+00  3.06D-01  5.44D-01  4.60D-01  2.21D-01
                    CP:  2.73D-01  6.07D-01  6.12D-01  4.23D-01  4.50D-01
 E= -20959.7373767226     Delta-E=       -0.004487383063 Rises=F Damp=F
 DIIS: error= 6.46D-04 at cycle  11 NSaved=  11.
 NSaved=11 IEnMin=11 EnMin= -20959.7373767226     IErMin=11 ErrMin= 6.46D-04
 ErrMax= 6.46D-04  0.00D+00 EMaxC= 1.00D-01 BMatC= 5.51D-04 BMatP= 6.70D-03
 IDIUse=3 WtCom= 9.94D-01 WtEn= 6.46D-03
 Coeff-Com: -0.272D-02 0.374D-02-0.471D-03 0.116D-02-0.333D-02-0.348D-02
 Coeff-Com:  0.279D-01 0.994D-01 0.201D+00 0.306D+00 0.371D+00
 Coeff-En:   0.000D+00 0.000D+00 0.000D+00 0.000D+00 0.000D+00 0.000D+00
 Coeff-En:   0.000D+00 0.000D+00 0.000D+00 0.514D-01 0.949D+00
 Coeff:     -0.270D-02 0.371D-02-0.468D-03 0.115D-02-0.331D-02-0.346D-02
 Coeff:      0.277D-01 0.988D-01 0.200D+00 0.304D+00 0.375D+00
 Gap=     0.063 Goal=   None    Shift=    0.000
 RMSDP=5.36D-05 MaxDP=2.95D-03 DE=-4.49D-03 OVMax= 1.45D-02

 Cycle  12  Pass 1  IDiag  1:
 RMSU=  2.64D-05    CP:  1.01D+00  3.06D-01  5.43D-01  4.67D-01  2.17D-01
                    CP:  2.79D-01  5.99D-01  6.01D-01  4.68D-01  5.09D-01
                    CP:  2.71D-01
 E= -20959.7377386708     Delta-E=       -0.000361948212 Rises=F Damp=F
 DIIS: error= 2.59D-04 at cycle  12 NSaved=  12.
 NSaved=12 IEnMin=12 EnMin= -20959.7377386708     IErMin=12 ErrMin= 2.59D-04
 ErrMax= 2.59D-04  0.00D+00 EMaxC= 1.00D-01 BMatC= 9.22D-05 BMatP= 5.51D-04
 IDIUse=3 WtCom= 9.97D-01 WtEn= 2.59D-03
 Coeff-Com: -0.152D-02 0.210D-02-0.236D-03 0.767D-03-0.140D-02-0.252D-02
 Coeff-Com:  0.117D-01 0.442D-01 0.104D+00 0.165D+00 0.296D+00 0.382D+00
 Coeff-En:   0.000D+00 0.000D+00 0.000D+00 0.000D+00 0.000D+00 0.000D+00
 Coeff-En:   0.000D+00 0.000D+00 0.000D+00 0.000D+00 0.207D+00 0.793D+00
 Coeff:     -0.152D-02 0.210D-02-0.235D-03 0.765D-03-0.139D-02-0.252D-02
 Coeff:      0.117D-01 0.441D-01 0.104D+00 0.165D+00 0.296D+00 0.383D+00
 Gap=     0.063 Goal=   None    Shift=    0.000
 RMSDP=2.60D-05 MaxDP=1.44D-03 DE=-3.62D-04 OVMax= 7.34D-03

 Cycle  13  Pass 1  IDiag  1:
 RMSU=  9.70D-06    CP:  1.01D+00  3.06D-01  5.43D-01  4.65D-01  2.20D-01
                    CP:  2.76D-01  6.00D-01  6.09D-01  4.54D-01  4.99D-01
                    CP:  5.28D-01  3.82D-01
 E= -20959.7378026744     Delta-E=       -0.000064003540 Rises=F Damp=F
 DIIS: error= 1.62D-04 at cycle  13 NSaved=  13.
 NSaved=13 IEnMin=13 EnMin= -20959.7378026744     IErMin=13 ErrMin= 1.62D-04
 ErrMax= 1.62D-04  0.00D+00 EMaxC= 1.00D-01 BMatC= 2.76D-05 BMatP= 9.22D-05
 IDIUse=3 WtCom= 9.98D-01 WtEn= 1.62D-03
 Coeff-Com: -0.333D-03 0.461D-03-0.994D-04 0.499D-03-0.955D-04-0.880D-03
 Coeff-Com:  0.122D-02 0.677D-02 0.270D-01 0.453D-01 0.153D+00 0.348D+00
 Coeff-Com:  0.419D+00
 Coeff-En:   0.000D+00 0.000D+00 0.000D+00 0.000D+00 0.000D+00 0.000D+00
 Coeff-En:   0.000D+00 0.000D+00 0.000D+00 0.000D+00 0.000D+00 0.260D+00
 Coeff-En:   0.740D+00
 Coeff:     -0.332D-03 0.460D-03-0.992D-04 0.499D-03-0.954D-04-0.878D-03
 Coeff:      0.122D-02 0.676D-02 0.270D-01 0.453D-01 0.153D+00 0.348D+00
 Coeff:      0.420D+00
 Gap=     0.064 Goal=   None    Shift=    0.000
 RMSDP=8.65D-06 MaxDP=4.83D-04 DE=-6.40D-05 OVMax= 2.11D-03

 Cycle  14  Pass 1  IDiag  1:
 RMSU=  3.32D-06    CP:  1.01D+00  3.06D-01  5.43D-01  4.65D-01  2.19D-01
                    CP:  2.77D-01  6.00D-01  6.05D-01  4.62D-01  5.10D-01
                    CP:  4.73D-01  4.89D-01  4.59D-01
 E= -20959.7378244879     Delta-E=       -0.000021813525 Rises=F Damp=F
 DIIS: error= 2.15D-05 at cycle  14 NSaved=  14.
 NSaved=14 IEnMin=14 EnMin= -20959.7378244879     IErMin=14 ErrMin= 2.15D-05
 ErrMax= 2.15D-05  0.00D+00 EMaxC= 1.00D-01 BMatC= 8.73D-07 BMatP= 2.76D-05
 IDIUse=1 WtCom= 1.00D+00 WtEn= 0.00D+00
 Coeff-Com: -0.657D-05 0.868D-05-0.321D-04 0.196D-03-0.596D-04-0.144D-03
 Coeff-Com: -0.381D-04 0.121D-02 0.823D-02 0.144D-01 0.669D-01 0.171D+00
 Coeff-Com:  0.235D+00 0.504D+00
 Coeff:     -0.657D-05 0.868D-05-0.321D-04 0.196D-03-0.596D-04-0.144D-03
 Coeff:     -0.381D-04 0.121D-02 0.823D-02 0.144D-01 0.669D-01 0.171D+00
 Coeff:      0.235D+00 0.504D+00
 Gap=     0.064 Goal=   None    Shift=    0.000
 RMSDP=2.16D-06 MaxDP=1.09D-04 DE=-2.18D-05 OVMax= 3.26D-04

 Cycle  15  Pass 1  IDiag  1:
 RMSU=  1.37D-06    CP:  1.01D+00  3.06D-01  5.43D-01  4.65D-01  2.19D-01
                    CP:  2.77D-01  6.00D-01  6.05D-01  4.61D-01  5.06D-01
                    CP:  4.75D-01  5.23D-01  4.78D-01  6.78D-01
 E= -20959.7378246774     Delta-E=       -0.000000189473 Rises=F Damp=F
 DIIS: error= 2.31D-05 at cycle  15 NSaved=  15.
 NSaved=15 IEnMin=15 EnMin= -20959.7378246774     IErMin=14 ErrMin= 2.15D-05
 ErrMax= 2.31D-05  0.00D+00 EMaxC= 1.00D-01 BMatC= 5.95D-07 BMatP= 8.73D-07
 IDIUse=1 WtCom= 1.00D+00 WtEn= 0.00D+00
 Coeff-Com:  0.275D-04-0.384D-04-0.171D-04 0.117D-03-0.358D-04-0.113D-04
 Coeff-Com: -0.181D-03 0.162D-03 0.377D-02 0.702D-02 0.384D-01 0.102D+00
 Coeff-Com:  0.145D+00 0.433D+00 0.271D+00
 Coeff:      0.275D-04-0.384D-04-0.171D-04 0.117D-03-0.358D-04-0.113D-04
 Coeff:     -0.181D-03 0.162D-03 0.377D-02 0.702D-02 0.384D-01 0.102D+00
 Coeff:      0.145D+00 0.433D+00 0.271D+00
 Gap=     0.064 Goal=   None    Shift=    0.000
 RMSDP=1.21D-06 MaxDP=4.59D-05 DE=-1.89D-07 OVMax= 2.59D-04

 Cycle  16  Pass 1  IDiag  1:
 RMSU=  4.98D-07    CP:  1.01D+00  3.06D-01  5.43D-01  4.65D-01  2.19D-01
                    CP:  2.77D-01  6.00D-01  6.05D-01  4.60D-01  5.06D-01
                    CP:  4.80D-01  5.17D-01  5.03D-01  6.50D-01  2.76D-01
 E= -20959.7378251269     Delta-E=       -0.000000449530 Rises=F Damp=F
 DIIS: error= 4.27D-06 at cycle  16 NSaved=  16.
 NSaved=16 IEnMin=16 EnMin= -20959.7378251269     IErMin=16 ErrMin= 4.27D-06
 ErrMax= 4.27D-06  0.00D+00 EMaxC= 1.00D-01 BMatC= 4.30D-08 BMatP= 5.95D-07
 IDIUse=1 WtCom= 1.00D+00 WtEn= 0.00D+00
 Coeff-Com:  0.410D-05-0.577D-05-0.114D-04 0.571D-04-0.111D-04 0.208D-04
 Coeff-Com: -0.983D-04-0.218D-03 0.112D-02 0.249D-02 0.149D-01 0.417D-01
 Coeff-Com:  0.580D-01 0.219D+00 0.204D+00 0.459D+00
 Coeff:      0.410D-05-0.577D-05-0.114D-04 0.571D-04-0.111D-04 0.208D-04
 Coeff:     -0.983D-04-0.218D-03 0.112D-02 0.249D-02 0.149D-01 0.417D-01
 Coeff:      0.580D-01 0.219D+00 0.204D+00 0.459D+00
 Gap=     0.064 Goal=   None    Shift=    0.000
 RMSDP=3.45D-07 MaxDP=2.21D-05 DE=-4.50D-07 OVMax= 5.52D-05

 Cycle  17  Pass 1  IDiag  1:
 RMSU=  1.70D-07    CP:  1.01D+00  3.06D-01  5.43D-01  4.65D-01  2.19D-01
                    CP:  2.77D-01  6.00D-01  6.05D-01  4.60D-01  5.07D-01
                    CP:  4.79D-01  5.17D-01  4.94D-01  6.60D-01  3.44D-01
                    CP:  6.40D-01
 E= -20959.7378251574     Delta-E=       -0.000000030534 Rises=F Damp=F
 DIIS: error= 1.82D-06 at cycle  17 NSaved=  17.
 NSaved=17 IEnMin=17 EnMin= -20959.7378251574     IErMin=17 ErrMin= 1.82D-06
 ErrMax= 1.82D-06  0.00D+00 EMaxC= 1.00D-01 BMatC= 5.67D-09 BMatP= 4.30D-08
 IDIUse=1 WtCom= 1.00D+00 WtEn= 0.00D+00
 Coeff-Com:  0.228D-05-0.310D-05-0.495D-05 0.234D-04-0.636D-05 0.182D-04
 Coeff-Com: -0.281D-04-0.168D-03 0.182D-03 0.648D-03 0.410D-02 0.126D-01
 Coeff-Com:  0.162D-01 0.755D-01 0.878D-01 0.297D+00 0.506D+00
 Coeff:      0.228D-05-0.310D-05-0.495D-05 0.234D-04-0.636D-05 0.182D-04
 Coeff:     -0.281D-04-0.168D-03 0.182D-03 0.648D-03 0.410D-02 0.126D-01
 Coeff:      0.162D-01 0.755D-01 0.878D-01 0.297D+00 0.506D+00
 Gap=     0.064 Goal=   None    Shift=    0.000
 RMSDP=1.72D-07 MaxDP=7.29D-06 DE=-3.05D-08 OVMax= 3.79D-05

 Cycle  18  Pass 1  IDiag  1:
 RMSU=  9.91D-08    CP:  1.01D+00  3.06D-01  5.43D-01  4.65D-01  2.19D-01
                    CP:  2.77D-01  6.00D-01  6.05D-01  4.61D-01  5.07D-01
                    CP:  4.79D-01  5.18D-01  4.89D-01  6.77D-01  3.80D-01
                    CP:  6.13D-01  4.87D-01
 E= -20959.7378251598     Delta-E=       -0.000000002357 Rises=F Damp=F
 DIIS: error= 1.07D-06 at cycle  18 NSaved=  18.
 NSaved=18 IEnMin=18 EnMin= -20959.7378251598     IErMin=18 ErrMin= 1.07D-06
 ErrMax= 1.07D-06  0.00D+00 EMaxC= 1.00D-01 BMatC= 2.48D-09 BMatP= 5.67D-09
 IDIUse=1 WtCom= 1.00D+00 WtEn= 0.00D+00
 Coeff-Com:  0.948D-06-0.117D-05-0.202D-05 0.123D-04-0.332D-05 0.727D-05
 Coeff-Com: -0.366D-05-0.883D-04 0.215D-04 0.232D-03 0.104D-02 0.345D-02
 Coeff-Com:  0.336D-02 0.251D-01 0.398D-01 0.182D+00 0.431D+00 0.314D+00
 Coeff:      0.948D-06-0.117D-05-0.202D-05 0.123D-04-0.332D-05 0.727D-05
 Coeff:     -0.366D-05-0.883D-04 0.215D-04 0.232D-03 0.104D-02 0.345D-02
 Coeff:      0.336D-02 0.251D-01 0.398D-01 0.182D+00 0.431D+00 0.314D+00
 Gap=     0.064 Goal=   None    Shift=    0.000
 RMSDP=1.13D-07 MaxDP=6.96D-06 DE=-2.36D-09 OVMax= 3.13D-05

 Cycle  19  Pass 1  IDiag  1:
 RMSU=  3.44D-08    CP:  1.01D+00  3.06D-01  5.43D-01  4.65D-01  2.19D-01
                    CP:  2.77D-01  6.00D-01  6.05D-01  4.61D-01  5.07D-01
                    CP:  4.79D-01  5.17D-01  4.93D-01  6.73D-01  3.54D-01
                    CP:  6.61D-01  6.41D-01  2.59D-01
 E= -20959.7378251643     Delta-E=       -0.000000004471 Rises=F Damp=F
 DIIS: error= 3.59D-07 at cycle  19 NSaved=  19.
 NSaved=19 IEnMin=19 EnMin= -20959.7378251643     IErMin=19 ErrMin= 3.59D-07
 ErrMax= 3.59D-07  0.00D+00 EMaxC= 1.00D-01 BMatC= 1.66D-10 BMatP= 2.48D-09
 IDIUse=1 WtCom= 1.00D+00 WtEn= 0.00D+00
 Coeff-Com: -0.327D-06 0.533D-06-0.960D-06 0.542D-05-0.117D-05 0.160D-05
 Coeff-Com:  0.244D-05-0.436D-04-0.115D-04 0.641D-04 0.195D-03 0.684D-03
 Coeff-Com:  0.413D-03 0.789D-02 0.155D-01 0.809D-01 0.205D+00 0.218D+00
 Coeff-Com:  0.472D+00
 Coeff:     -0.327D-06 0.533D-06-0.960D-06 0.542D-05-0.117D-05 0.160D-05
 Coeff:      0.244D-05-0.436D-04-0.115D-04 0.641D-04 0.195D-03 0.684D-03
 Coeff:      0.413D-03 0.789D-02 0.155D-01 0.809D-01 0.205D+00 0.218D+00
 Coeff:      0.472D+00
 Gap=     0.064 Goal=   None    Shift=    0.000
 RMSDP=2.98D-08 MaxDP=1.35D-06 DE=-4.47D-09 OVMax= 6.62D-06

 Cycle  20  Pass 1  IDiag  1:
 RMSU=  1.01D-08    CP:  1.01D+00  3.06D-01  5.43D-01  4.65D-01  2.19D-01
                    CP:  2.77D-01  6.00D-01  6.05D-01  4.61D-01  5.07D-01
                    CP:  4.79D-01  5.18D-01  4.93D-01  6.71D-01  3.57D-01
                    CP:  6.62D-01  6.34D-01  3.72D-01  6.69D-01
 E= -20959.7378251624     Delta-E=        0.000000001826 Rises=F Damp=F
 DIIS: error= 1.03D-07 at cycle  20 NSaved=  20.
 NSaved=20 IEnMin=19 EnMin= -20959.7378251643     IErMin=20 ErrMin= 1.03D-07
 ErrMax= 1.03D-07  0.00D+00 EMaxC= 1.00D-01 BMatC= 2.15D-11 BMatP= 1.66D-10
 IDIUse=1 WtCom= 1.00D+00 WtEn= 0.00D+00
 Coeff-Com: -0.395D-06 0.583D-06-0.412D-06 0.219D-05-0.227D-06-0.232D-06
 Coeff-Com:  0.234D-05-0.188D-04-0.105D-04 0.109D-04 0.514D-05-0.892D-07
 Coeff-Com: -0.139D-03 0.191D-02 0.500D-02 0.290D-01 0.780D-01 0.107D+00
 Coeff-Com:  0.313D+00 0.466D+00
 Coeff:     -0.395D-06 0.583D-06-0.412D-06 0.219D-05-0.227D-06-0.232D-06
 Coeff:      0.234D-05-0.188D-04-0.105D-04 0.109D-04 0.514D-05-0.892D-07
 Coeff:     -0.139D-03 0.191D-02 0.500D-02 0.290D-01 0.780D-01 0.107D+00
 Coeff:      0.313D+00 0.466D+00
 Gap=     0.064 Goal=   None    Shift=    0.000
 RMSDP=7.43D-09 MaxDP=5.23D-07 DE= 1.83D-09 OVMax= 1.05D-06

 Cycle  21  Pass 1  IDiag  1:
 Restarting incremental Fock formation.
 E= -20959.7378251605     Delta-E=        0.000000001994 Rises=F Damp=F
 DIIS: error= 4.05D-08 at cycle  21 NSaved=  20.
 NSaved=20 IEnMin=18 EnMin= -20959.7378251643     IErMin=20 ErrMin= 4.05D-08
 ErrMax= 4.05D-08  0.00D+00 EMaxC= 1.00D-01 BMatC= 4.03D-12 BMatP= 2.15D-11
 IDIUse=1 WtCom= 1.00D+00 WtEn= 0.00D+00
 Coeff-Com:  0.153D-07-0.971D-07 0.648D-06 0.362D-09-0.209D-06 0.602D-06
 Coeff-Com: -0.843D-05-0.105D-04-0.103D-04-0.301D-04-0.107D-03-0.141D-03
 Coeff-Com:  0.241D-03 0.116D-02 0.729D-02 0.205D-01 0.380D-01 0.131D+00
 Coeff-Com:  0.327D+00 0.476D+00
 Coeff:      0.153D-07-0.971D-07 0.648D-06 0.362D-09-0.209D-06 0.602D-06
 Coeff:     -0.843D-05-0.105D-04-0.103D-04-0.301D-04-0.107D-03-0.141D-03
 Coeff:      0.241D-03 0.116D-02 0.729D-02 0.205D-01 0.380D-01 0.131D+00
 Coeff:      0.327D+00 0.476D+00
 Gap=     0.064 Goal=   None    Shift=    0.000
 RMSDP=4.25D-09 MaxDP=1.93D-07 DE= 1.99D-09 OVMax= 4.57D-07

 Cycle  22  Pass 1  IDiag  1:
 RMSU=  4.25D-09    CP:  1.00D+00
 E= -20959.7378251594     Delta-E=        0.000000001066 Rises=F Damp=F
 DIIS: error= 3.52D-08 at cycle  22 NSaved=  20.
 NSaved=20 IEnMin=17 EnMin= -20959.7378251643     IErMin=20 ErrMin= 3.52D-08
 ErrMax= 3.52D-08  0.00D+00 EMaxC= 1.00D-01 BMatC= 1.34D-12 BMatP= 4.03D-12
 IDIUse=1 WtCom= 1.00D+00 WtEn= 0.00D+00
 Coeff-Com: -0.680D-07 0.259D-06 0.195D-07-0.915D-07 0.687D-06-0.412D-05
 Coeff-Com: -0.689D-05-0.919D-05-0.274D-04-0.971D-04-0.116D-03-0.931D-04
 Coeff-Com:  0.316D-03 0.244D-02 0.664D-02 0.170D-01 0.691D-01 0.212D+00
 Coeff-Com:  0.384D+00 0.309D+00
 Coeff:     -0.680D-07 0.259D-06 0.195D-07-0.915D-07 0.687D-06-0.412D-05
 Coeff:     -0.689D-05-0.919D-05-0.274D-04-0.971D-04-0.116D-03-0.931D-04
 Coeff:      0.316D-03 0.244D-02 0.664D-02 0.170D-01 0.691D-01 0.212D+00
 Coeff:      0.384D+00 0.309D+00
 Gap=     0.064 Goal=   None    Shift=    0.000
 RMSDP=1.92D-09 MaxDP=9.30D-08 DE= 1.07D-09 OVMax= 3.14D-07

 Cycle  23  Pass 1  IDiag  1:
 RMSU=  1.91D-09    CP:  1.00D+00  1.02D+00
 E= -20959.7378251597     Delta-E=       -0.000000000266 Rises=F Damp=F
 DIIS: error= 1.51D-08 at cycle  23 NSaved=  20.
 NSaved=20 IEnMin=16 EnMin= -20959.7378251643     IErMin=20 ErrMin= 1.51D-08
 ErrMax= 1.51D-08  0.00D+00 EMaxC= 1.00D-01 BMatC= 2.86D-13 BMatP= 1.34D-12
 IDIUse=1 WtCom= 1.00D+00 WtEn= 0.00D+00
 Coeff-Com: -0.160D-07 0.461D-08-0.858D-07 0.493D-06-0.257D-06-0.183D-05
 Coeff-Com: -0.354D-05-0.152D-04-0.534D-04-0.678D-04-0.244D-03-0.199D-03
 Coeff-Com: -0.625D-03-0.243D-02-0.396D-03 0.121D-01 0.608D-01 0.154D+00
 Coeff-Com:  0.287D+00 0.490D+00
 Coeff:     -0.160D-07 0.461D-08-0.858D-07 0.493D-06-0.257D-06-0.183D-05
 Coeff:     -0.354D-05-0.152D-04-0.534D-04-0.678D-04-0.244D-03-0.199D-03
 Coeff:     -0.625D-03-0.243D-02-0.396D-03 0.121D-01 0.608D-01 0.154D+00
 Coeff:      0.287D+00 0.490D+00
 Gap=     0.064 Goal=   None    Shift=    0.000
 RMSDP=1.44D-09 MaxDP=1.00D-07 DE=-2.66D-10 OVMax= 1.01D-07

 Error on total polarization charges =  0.02255
 SCF Done:  E(RPBE-PBE) =  -20959.7378252     A.U. after   23 cycles
            NFock= 23  Conv=0.14D-08     -V/T= 2.0152
 KE= 2.064591752327D+04 PE=-5.722769085615D+04 EE= 1.187559914805D+04
 Leave Link  502 at Sat Oct 30 08:49:52 2021, MaxMem=  2013265920 cpu:      4167.5
 (Enter /scr/programas/g09/l801.exe)
 Range of M.O.s used for correlation:     1   543
 NBasis=   543 NAE=   112 NBE=   112 NFC=     0 NFV=     0
 NROrb=    543 NOA=   112 NOB=   112 NVA=   431 NVB=   431

 **** Warning!!: The largest alpha MO coefficient is  0.40059467D+02


 **** Warning!!: The smallest alpha delta epsilon is  0.63525678D-01

 Leave Link  801 at Sat Oct 30 08:49:52 2021, MaxMem=  2013265920 cpu:         0.1
 (Enter /scr/programas/g09/l1002.exe)
 Minotr:  Closed shell wavefunction.
 NEqPCM:  Using equilibrium solvation (IEInf=0, Eps=  78.3553, EpsInf=   1.7778)
          Direct CPHF calculation.
          Differentiating once with respect to magnetic field using GIAOs.
          Electric field/nuclear overlap derivatives assumed to be zero.
          Requested convergence is 1.0D-08 RMS, and 1.0D-07 maximum.
          Secondary convergence is 1.0D-12 RMS, and 1.0D-12 maximum.
          NewPWx=T KeepS1=F KeepF1=F KeepIn=T MapXYZ=F SortEE=F KeepMc=T.
          MDV=    2013265253 using IRadAn=       2.
 Defaulting to unpruned grid for atomic number  78.
 Generate precomputed XC quadrature information.
          Solving linear equations simultaneously, MaxMat=       0.
 FoFJK:  IHMeth= 1 ICntrl=    6127 DoSepK=F KAlg= 0 I1Cent=   0 FoldK=F
 IRaf=         1 NMat=   1 IRICut=       1 DoRegI=T DoRafI=F ISym2E= 0.
 Defaulting to unpruned grid for atomic number  78.
 Defaulting to unpruned grid for atomic number  78.
 Defaulting to unpruned grid for atomic number  78.
 Defaulting to unpruned grid for atomic number  78.
          There are     3 degrees of freedom in the 1st order CPHF.  IDoFFX=0 NUNeed=     3.
      3 vectors produced by pass  0 Test12= 1.61D-12 3.33D-08 XBig12= 5.56D+01 3.41D+00.
 AX will form     3 AO Fock derivatives at one time.
 InvSVY:  IOpt=1 It=  1 EMax= 0.00D+00
 Solved reduced A of dimension     3 with     3 vectors.
 Calculating GIAO nuclear magnetic shielding tensors.
 SCF GIAO Magnetic shielding tensor (ppm):
      1  Pt   Isotropic = -1723.2931   Anisotropy =  1028.9234
   XX= -2644.4141   YX=   118.4522   ZX=   163.0114
   XY=   105.6353   YY= -1047.0360   ZY=   -36.5762
   XZ=   420.2941   YZ=   -58.1210   ZZ= -1478.4293
   Eigenvalues: -2721.8860 -1410.6492 -1037.3442
      2  N    Isotropic =  -210.7591   Anisotropy =   330.0749
   XX=  -282.8557   YX=   126.0400   ZX=  -131.2532
   XY=   129.7751   YY=  -229.6763   ZY=   -53.7708
   XZ=  -133.2086   YZ=   -55.4646   ZZ=  -119.7453
   Eigenvalues:  -406.9909  -234.5772     9.2909
      3  O    Isotropic =  -403.1363   Anisotropy =   549.7326
   XX=  -532.8143   YX=   302.9996   ZX=  -200.9784
   XY=   154.7274   YY=  -429.5734   ZY=   -95.7828
   XZ=  -288.9270   YZ=     1.1209   ZZ=  -247.0211
   Eigenvalues:  -773.0054  -399.7556   -36.6479
      4  O    Isotropic =  -396.4114   Anisotropy =   511.0051
   XX=  -519.6610   YX=   147.2628   ZX=  -263.2496
   XY=   297.6279   YY=  -424.6028   ZY=    -1.2436
   XZ=  -167.4767   YZ=   -98.1811   ZZ=  -244.9703
   Eigenvalues:  -742.1096  -391.3832   -55.7413
      5  N    Isotropic =  -211.5945   Anisotropy =   331.9767
   XX=  -296.5861   YX=  -128.2666   ZX=  -127.1136
   XY=  -133.6473   YY=  -200.8059   ZY=    64.0222
   XZ=  -130.8675   YZ=    65.1880   ZZ=  -137.3915
   Eigenvalues:  -409.7116  -234.7952     9.7233
      6  O    Isotropic =  -396.9620   Anisotropy =   517.2383
   XX=  -546.9171   YX=  -154.5681   ZX=  -266.7193
   XY=  -296.8204   YY=  -376.0145   ZY=    21.9614
   XZ=  -161.6001   YZ=   112.5149   ZZ=  -267.9545
   Eigenvalues:  -748.0613  -390.6883   -52.1365
      7  O    Isotropic =  -402.4484   Anisotropy =   557.8080
   XX=  -560.7524   YX=  -302.0594   ZX=  -190.3954
   XY=  -165.3166   YY=  -379.0638   ZY=   118.1229
   XZ=  -291.9498   YZ=    22.7495   ZZ=  -267.5291
   Eigenvalues:  -777.9209  -398.8480   -30.5764
      8  Cl   Isotropic =   591.0126   Anisotropy =   762.3854
   XX=  1061.7886   YX=   -41.9380   ZX=   -54.8712
   XY=   -41.1775   YY=   418.4430   ZY=    24.6990
   XZ=  -276.2738   YZ=    44.6453   ZZ=   292.8062
   Eigenvalues:   254.6145   419.1538  1099.2695
      9  N    Isotropic =  -210.7075   Anisotropy =   329.9763
   XX=  -280.5754   YX=   124.5823   ZX=  -131.6611
   XY=   129.1715   YY=  -236.4273   ZY=   -51.3136
   XZ=  -133.2990   YZ=   -53.0794   ZZ=  -115.1197
   Eigenvalues:  -406.8298  -234.5693     9.2768
     10  N    Isotropic =  -211.3941   Anisotropy =   331.6643
   XX=  -290.7219   YX=  -128.6908   ZX=  -128.8567
   XY=  -134.6261   YY=  -209.0377   ZY=    60.7898
   XZ=  -132.4042   YZ=    61.9262   ZZ=  -134.4227
   Eigenvalues:  -409.1701  -234.7277     9.7154
     11  O    Isotropic =  -403.5582   Anisotropy =   516.6991
   XX=  -540.9814   YX=  -159.2778   ZX=  -268.1936
   XY=  -308.4502   YY=  -393.3782   ZY=    11.3467
   XZ=  -166.8994   YZ=   101.7023   ZZ=  -276.3149
   Eigenvalues:  -759.6690  -391.9134   -59.0921
     12  O    Isotropic =  -399.3279   Anisotropy =   555.0867
   XX=  -549.0668   YX=  -303.1890   ZX=  -193.1983
   XY=  -164.8725   YY=  -384.3113   ZY=   118.6826
   XZ=  -284.6086   YZ=    20.2665   ZZ=  -264.6056
   Eigenvalues:  -769.7308  -398.9828   -29.2700
     13  O    Isotropic =  -403.4979   Anisotropy =   509.0808
   XX=  -518.3304   YX=   148.2240   ZX=  -262.4741
   XY=   306.8442   YY=  -440.2371   ZY=     6.9137
   XZ=  -170.1584   YZ=   -88.3841   ZZ=  -251.9261
   Eigenvalues:  -753.7219  -392.6610   -64.1107
     14  O    Isotropic =  -399.3630   Anisotropy =   547.3459
   XX=  -526.3300   YX=   301.2119   ZX=  -202.1376
   XY=   151.4890   YY=  -431.0046   ZY=   -98.1467
   XZ=  -279.9635   YZ=    -1.0847   ZZ=  -240.7544
   Eigenvalues:  -763.6862  -399.9371   -34.4657
     15  Br   Isotropic =  1669.7487   Anisotropy =  2008.9512
   XX=  2894.7108   YX=  -110.7562   ZX=  -227.6214
   XY=  -108.5844   YY=  1197.1249   ZY=    58.9743
   XZ=  -711.0631   YZ=   102.2152   ZZ=   917.4105
   Eigenvalues:   803.9624  1196.2342  3009.0495
 End of Minotr F.D. properties file   721 does not exist.
 End of Minotr F.D. properties file   722 does not exist.
 End of Minotr F.D. properties file   788 does not exist.
 Leave Link 1002 at Sat Oct 30 09:01:12 2021, MaxMem=  2013265920 cpu:      2703.8
 (Enter /scr/programas/g09/l601.exe)
 Copying SCF densities to generalized density rwf, IOpCl= 0 IROHF=0.

 **********************************************************************

            Population analysis using the SCF density.

 **********************************************************************

 Orbital symmetries:
       Occupied  (A) (A) (A) (A) (A) (A) (A) (A) (A) (A) (A) (A)
                 (A) (A) (A) (A) (A) (A) (A) (A) (A) (A) (A) (A)
                 (A) (A) (A) (A) (A) (A) (A) (A) (A) (A) (A) (A)
                 (A) (A) (A) (A) (A) (A) (A) (A) (A) (A) (A) (A)
                 (A) (A) (A) (A) (A) (A) (A) (A) (A) (A) (A) (A)
                 (A) (A) (A) (A) (A) (A) (A) (A) (A) (A) (A) (A)
                 (A) (A) (A) (A) (A) (A) (A) (A) (A) (A) (A) (A)
                 (A) (A) (A) (A) (A) (A) (A) (A) (A) (A) (A) (A)
                 (A) (A) (A) (A) (A) (A) (A) (A) (A) (A) (A) (A)
                 (A) (A) (A) (A)
       Virtual   (A) (A) (A) (A) (A) (A) (A) (A) (A) (A) (A) (A)
                 (A) (A) (A) (A) (A) (A) (A) (A) (A) (A) (A) (A)
                 (A) (A) (A) (A) (A) (A) (A) (A) (A) (A) (A) (A)
                 (A) (A) (A) (A) (A) (A) (A) (A) (A) (A) (A) (A)
                 (A) (A) (A) (A) (A) (A) (A) (A) (A) (A) (A) (A)
                 (A) (A) (A) (A) (A) (A) (A) (A) (A) (A) (A) (A)
                 (A) (A) (A) (A) (A) (A) (A) (A) (A) (A) (A) (A)
                 (A) (A) (A) (A) (A) (A) (A) (A) (A) (A) (A) (A)
                 (A) (A) (A) (A) (A) (A) (A) (A) (A) (A) (A) (A)
                 (A) (A) (A) (A) (A) (A) (A) (A) (A) (A) (A) (A)
                 (A) (A) (A) (A) (A) (A) (A) (A) (A) (A) (A) (A)
                 (A) (A) (A) (A) (A) (A) (A) (A) (A) (A) (A) (A)
                 (A) (A) (A) (A) (A) (A) (A) (A) (A) (A) (A) (A)
                 (A) (A) (A) (A) (A) (A) (A) (A) (A) (A) (A) (A)
                 (A) (A) (A) (A) (A) (A) (A) (A) (A) (A) (A) (A)
                 (A) (A) (A) (A) (A) (A) (A) (A) (A) (A) (A) (A)
                 (A) (A) (A) (A) (A) (A) (A) (A) (A) (A) (A) (A)
                 (A) (A) (A) (A) (A) (A) (A) (A) (A) (A) (A) (A)
                 (A) (A) (A) (A) (A) (A) (A) (A) (A) (A) (A) (A)
                 (A) (A) (A) (A) (A) (A) (A) (A) (A) (A) (A) (A)
                 (A) (A) (A) (A) (A) (A) (A) (A) (A) (A) (A) (A)
                 (A) (A) (A) (A) (A) (A) (A) (A) (A) (A) (A) (A)
                 (A) (A) (A) (A) (A) (A) (A) (A) (A) (A) (A) (A)
                 (A) (A) (A) (A) (A) (A) (A) (A) (A) (A) (A) (A)
                 (A) (A) (A) (A) (A) (A) (A) (A) (A) (A) (A) (A)
                 (A) (A) (A) (A) (A) (A) (A) (A) (A) (A) (A) (A)
                 (A) (A) (A) (A) (A) (A) (A) (A) (A) (A) (A) (A)
                 (A) (A) (A) (A) (A) (A) (A) (A) (A) (A) (A) (A)
                 (A) (A) (A) (A) (A) (A) (A) (A) (A) (A) (A) (A)
                 (A) (A) (A) (A) (A) (A) (A) (A) (A) (A) (A) (A)
                 (A) (A) (A) (A) (A) (A) (A) (A) (A) (A) (A) (A)
                 (A) (A) (A) (A) (A) (A) (A) (A) (A) (A) (A) (A)
                 (A) (A) (A) (A) (A) (A) (A) (A) (A) (A) (A) (A)
                 (A) (A) (A) (A) (A) (A) (A) (A) (A) (A) (A) (A)
                 (A) (A) (A) (A) (A) (A) (A) (A) (A) (A) (A) (A)
                 (A) (A) (A) (A) (A) (A) (A) (A) (A) (A) (A)
 The electronic state is 1-A.
 Alpha  occ. eigenvalues -- **********-478.58007-427.60179-414.93101-414.93084
 Alpha  occ. eigenvalues -- -414.93083-100.53211 -99.98209 -92.13887 -92.13868
 Alpha  occ. eigenvalues --  -92.13840 -79.09801 -79.09781 -79.09667 -79.09643
 Alpha  occ. eigenvalues --  -79.09632 -61.49851 -55.68326 -55.68043 -55.68037
 Alpha  occ. eigenvalues --  -20.89701 -18.78122 -18.78095 -18.78091 -18.78068
 Alpha  occ. eigenvalues --  -18.77934 -18.77919 -18.77906 -18.77874 -17.46181
 Alpha  occ. eigenvalues --  -17.46142 -17.46097 -14.17117 -14.17095 -14.17070
 Alpha  occ. eigenvalues --  -14.17063 -11.64606 -11.64568 -11.64129 -11.64061
 Alpha  occ. eigenvalues --  -11.64031  -9.11076  -8.32709  -6.94976  -6.94210
 Alpha  occ. eigenvalues --   -6.94197  -6.23567  -6.22741  -6.22728  -3.19435
 Alpha  occ. eigenvalues --   -3.19400  -3.19362  -3.19141  -3.19101  -3.19094
 Alpha  occ. eigenvalues --   -3.18760  -2.92516  -2.44505  -2.44297  -2.44288
 Alpha  occ. eigenvalues --   -2.43679  -2.43678  -1.86560  -1.86473  -1.86377
 Alpha  occ. eigenvalues --   -1.12368  -1.12162  -1.12079  -1.12043  -0.96054
 Alpha  occ. eigenvalues --   -0.95853  -0.95822  -0.95656  -0.68772  -0.65625
 Alpha  occ. eigenvalues --   -0.58029  -0.57820  -0.56056  -0.56002  -0.48526
 Alpha  occ. eigenvalues --   -0.47589  -0.47239  -0.46739  -0.46595  -0.45523
 Alpha  occ. eigenvalues --   -0.45391  -0.45040  -0.44938  -0.44843  -0.44786
 Alpha  occ. eigenvalues --   -0.44688  -0.36502  -0.33075  -0.32837  -0.31352
 Alpha  occ. eigenvalues --   -0.28830  -0.28097  -0.27889  -0.27757  -0.27266
 Alpha  occ. eigenvalues --   -0.26705  -0.24698  -0.24579  -0.24357  -0.23872
 Alpha  occ. eigenvalues --   -0.23405  -0.23373  -0.22756  -0.21983  -0.21576
 Alpha  occ. eigenvalues --   -0.20622  -0.19890
 Alpha virt. eigenvalues --   -0.13537  -0.10502  -0.09232  -0.08706  -0.08109
 Alpha virt. eigenvalues --   -0.07752   0.00484   0.01375   0.02115   0.02151
 Alpha virt. eigenvalues --    0.04100   0.04665   0.04751   0.05422   0.06029
 Alpha virt. eigenvalues --    0.07297   0.08129   0.08255   0.09943   0.11209
 Alpha virt. eigenvalues --    0.11293   0.13811   0.16174   0.16893   0.16928
 Alpha virt. eigenvalues --    0.18221   0.19013   0.20356   0.22241   0.22890
 Alpha virt. eigenvalues --    0.23170   0.23542   0.24168   0.24427   0.24757
 Alpha virt. eigenvalues --    0.24985   0.26533   0.27601   0.27715   0.27829
 Alpha virt. eigenvalues --    0.28442   0.28731   0.30815   0.31132   0.31949
 Alpha virt. eigenvalues --    0.32237   0.32657   0.33168   0.35102   0.35495
 Alpha virt. eigenvalues --    0.35621   0.36387   0.36940   0.37282   0.37767
 Alpha virt. eigenvalues --    0.38265   0.38445   0.38608   0.40412   0.41228
 Alpha virt. eigenvalues --    0.41819   0.42788   0.44028   0.44899   0.45963
 Alpha virt. eigenvalues --    0.48165   0.49461   0.50001   0.51142   0.52022
 Alpha virt. eigenvalues --    0.52167   0.53175   0.53417   0.53777   0.55552
 Alpha virt. eigenvalues --    0.55983   0.56330   0.56356   0.56625   0.58177
 Alpha virt. eigenvalues --    0.58380   0.59963   0.60431   0.60621   0.62442
 Alpha virt. eigenvalues --    0.62648   0.63245   0.64076   0.64268   0.65094
 Alpha virt. eigenvalues --    0.65328   0.66266   0.66789   0.67328   0.67996
 Alpha virt. eigenvalues --    0.68141   0.68671   0.70000   0.70744   0.71255
 Alpha virt. eigenvalues --    0.71840   0.74050   0.74113   0.74773   0.75927
 Alpha virt. eigenvalues --    0.76232   0.76882   0.77550   0.78802   0.80026
 Alpha virt. eigenvalues --    0.81493   0.81679   0.82056   0.83142   0.85624
 Alpha virt. eigenvalues --    0.86175   0.87117   0.87905   0.89391   0.89810
 Alpha virt. eigenvalues --    0.92041   0.92219   0.93541   0.93928   0.95003
 Alpha virt. eigenvalues --    0.96296   0.96701   0.97675   0.98981   0.99148
 Alpha virt. eigenvalues --    1.00205   1.01046   1.01652   1.02300   1.02795
 Alpha virt. eigenvalues --    1.03343   1.04539   1.05131   1.05495   1.06494
 Alpha virt. eigenvalues --    1.06758   1.08212   1.09094   1.09925   1.10154
 Alpha virt. eigenvalues --    1.11092   1.11550   1.11996   1.14909   1.16289
 Alpha virt. eigenvalues --    1.16940   1.17190   1.18102   1.18729   1.19054
 Alpha virt. eigenvalues --    1.21272   1.21723   1.22059   1.23060   1.23353
 Alpha virt. eigenvalues --    1.24179   1.24680   1.26393   1.27201   1.27729
 Alpha virt. eigenvalues --    1.27959   1.29344   1.30208   1.31794   1.31863
 Alpha virt. eigenvalues --    1.32682   1.33961   1.34807   1.36443   1.37514
 Alpha virt. eigenvalues --    1.38731   1.39497   1.41599   1.42045   1.43399
 Alpha virt. eigenvalues --    1.44183   1.44633   1.46199   1.46915   1.49098
 Alpha virt. eigenvalues --    1.49847   1.51361   1.51837   1.52284   1.52948
 Alpha virt. eigenvalues --    1.55158   1.55372   1.59998   1.60585   1.62175
 Alpha virt. eigenvalues --    1.64196   1.68509   1.71167   1.71668   1.73327
 Alpha virt. eigenvalues --    1.74844   1.75008   1.76104   1.76371   1.77626
 Alpha virt. eigenvalues --    1.79508   1.80949   1.82638   1.84883   1.85751
 Alpha virt. eigenvalues --    1.89397   1.90958   1.91769   1.92699   1.93470
 Alpha virt. eigenvalues --    1.96665   1.97179   1.97717   2.02144   2.06106
 Alpha virt. eigenvalues --    2.11020   2.11418   2.26000   2.36832   2.37293
 Alpha virt. eigenvalues --    2.38102   2.38312   2.38431   2.42571   2.44421
 Alpha virt. eigenvalues --    2.44550   2.44986   2.46534   2.46915   2.48131
 Alpha virt. eigenvalues --    2.49369   2.49665   2.51387   2.52351   2.54731
 Alpha virt. eigenvalues --    2.55178   2.55628   2.55936   2.56515   2.57017
 Alpha virt. eigenvalues --    2.58529   2.59308   2.61175   2.63690   2.64578
 Alpha virt. eigenvalues --    2.65076   2.66108   2.67050   2.67677   2.69476
 Alpha virt. eigenvalues --    2.69831   2.70661   2.72290   2.72514   2.73544
 Alpha virt. eigenvalues --    2.73940   2.76921   2.84143   2.85477   2.86132
 Alpha virt. eigenvalues --    2.89138   2.90533   2.92998   2.98083   3.00933
 Alpha virt. eigenvalues --    3.03702   3.10130   3.11266   3.13903   3.19461
 Alpha virt. eigenvalues --    3.19840   3.21592   3.23045   3.24277   3.24748
 Alpha virt. eigenvalues --    3.25370   3.27243   3.34894   3.37234   3.37681
 Alpha virt. eigenvalues --    3.43039   3.48085   3.51007   3.53854   3.58039
 Alpha virt. eigenvalues --    3.61825   3.63662   3.68620   3.72805   3.76738
 Alpha virt. eigenvalues --    3.77359   3.83743   3.85433   3.85751   3.87799
 Alpha virt. eigenvalues --    3.89446   3.90260   3.90920   3.92535   3.93493
 Alpha virt. eigenvalues --    3.96655   3.98455   3.99926   4.00780   4.03995
 Alpha virt. eigenvalues --    4.08742   4.10280   4.10328   4.11270   4.15221
 Alpha virt. eigenvalues --    4.33516   4.33689   4.34075   4.35741   4.36579
 Alpha virt. eigenvalues --    4.38769   4.39312   4.41214   4.41291   4.44015
 Alpha virt. eigenvalues --    4.45274   4.46098   4.49861   4.50545   4.51347
 Alpha virt. eigenvalues --    4.52200   4.52930   4.57408   5.42930   5.46414
 Alpha virt. eigenvalues --    5.47099   5.54095   5.75205   5.85763   5.88950
 Alpha virt. eigenvalues --    5.98085   6.05928   6.14814   6.17303   6.36183
 Alpha virt. eigenvalues --    6.90070   6.91888   6.94217   6.97776   7.00552
 Alpha virt. eigenvalues --    7.01909   7.04272   7.06007   8.43941   8.44728
 Alpha virt. eigenvalues --    8.44931   8.46107   8.48450   8.51112   8.56078
 Alpha virt. eigenvalues --    8.62687   8.66627   8.86964   9.82141   9.88785
 Alpha virt. eigenvalues --    9.89354   9.93428   9.94028  10.05066  10.15614
 Alpha virt. eigenvalues --   10.22429  14.16755  16.97792  20.30829  20.31394
 Alpha virt. eigenvalues --   20.44468  20.95548  21.06159  21.09145  23.01488
 Alpha virt. eigenvalues --   23.02029  23.02602  23.10891  25.97253  30.18628
 Alpha virt. eigenvalues --   30.21774  30.24939  30.25549  30.28694  30.32255
 Alpha virt. eigenvalues --   30.32757  30.35207  42.86353  42.92667  42.93909
 Alpha virt. eigenvalues --   43.04685  43.06671  65.21361  78.27206  82.01457
 Alpha virt. eigenvalues --   86.08284  86.16283  86.18754 112.75076 112.75466
 Alpha virt. eigenvalues --  112.84587 123.16067 123.16404 123.17360 123.27271
 Alpha virt. eigenvalues --  162.94469 162.97900 163.01062 163.02076 163.05151
 Alpha virt. eigenvalues --  163.09079 163.09635 163.11890 257.13200 282.54598
 Alpha virt. eigenvalues --  428.68714 428.74904 428.76805 431.89887 772.81809
 Alpha virt. eigenvalues -- 1043.701662068.426855495.235255634.58966**********
 Alpha virt. eigenvalues -- **********
          Condensed to atoms (all electrons):
               1          2          3          4          5          6
     1  Pt  77.930152  -0.045863   0.049594   0.031096  -0.047629   0.032151
     2  N   -0.045863   5.995093   0.580636   0.568446   0.019613  -0.000643
     3  O    0.049594   0.580636   7.567417  -0.082773  -0.003881   0.000076
     4  O    0.031096   0.568446  -0.082773   7.582221  -0.000724  -0.000016
     5  N   -0.047629   0.019613  -0.003881  -0.000724   5.996972   0.568264
     6  O    0.032151  -0.000643   0.000076  -0.000016   0.568264   7.581588
     7  O    0.050552  -0.003349  -0.004232   0.000122   0.579099  -0.082480
     8  Cl  -0.062637  -0.003022   0.000348  -0.001330  -0.000784  -0.001960
     9  N   -0.067186  -0.008898   0.000212   0.000216   0.021143   0.000227
    10  N   -0.069777   0.019869  -0.001243   0.000061  -0.009000   0.000225
    11  O    0.048987  -0.002513   0.000780  -0.005224   0.000223   0.000000
    12  O    0.045828  -0.001478  -0.000004   0.000737   0.000189  -0.000004
    13  O    0.048473   0.000219  -0.000003   0.000000  -0.003081  -0.005228
    14  O    0.044862   0.000193   0.000000  -0.000004  -0.001763   0.000865
    15  Br   0.069223  -0.014565  -0.009859  -0.000937  -0.014592  -0.001018
               7          8          9         10         11         12
     1  Pt   0.050552  -0.062637  -0.067186  -0.069777   0.048987   0.045828
     2  N   -0.003349  -0.003022  -0.008898   0.019869  -0.002513  -0.001478
     3  O   -0.004232   0.000348   0.000212  -0.001243   0.000780  -0.000004
     4  O    0.000122  -0.001330   0.000216   0.000061  -0.005224   0.000737
     5  N    0.579099  -0.000784   0.021143  -0.009000   0.000223   0.000189
     6  O   -0.082480  -0.001960   0.000227   0.000225   0.000000  -0.000004
     7  O    7.568772  -0.000260  -0.001095   0.000210  -0.000003   0.000000
     8  Cl  -0.000260  17.547882   0.003943   0.006416  -0.000695  -0.006892
     9  N   -0.001095   0.003943   6.017580   0.016467  -0.000513  -0.001847
    10  N    0.000210   0.006416   0.016467   6.018790   0.575955   0.575386
    11  O   -0.000003  -0.000695  -0.000513   0.575955   7.551291  -0.079702
    12  O    0.000000  -0.006892  -0.001847   0.575386  -0.079702   7.574554
    13  O    0.000670  -0.000485   0.577419  -0.000567  -0.000012   0.000123
    14  O   -0.000005  -0.005945   0.572848  -0.002261   0.000076  -0.006329
    15  Br  -0.009517  -0.007039  -0.017240  -0.016547  -0.011248  -0.001487
              13         14         15
     1  Pt   0.048473   0.044862   0.069223
     2  N    0.000219   0.000193  -0.014565
     3  O   -0.000003   0.000000  -0.009859
     4  O    0.000000  -0.000004  -0.000937
     5  N   -0.003081  -0.001763  -0.014592
     6  O   -0.005228   0.000865  -0.001018
     7  O    0.000670  -0.000005  -0.009517
     8  Cl  -0.000485  -0.005945  -0.007039
     9  N    0.577419   0.572848  -0.017240
    10  N   -0.000567  -0.002261  -0.016547
    11  O   -0.000012   0.000076  -0.011248
    12  O    0.000123  -0.006329  -0.001487
    13  O    7.551502  -0.080234  -0.011557
    14  O   -0.080234   7.577849  -0.001193
    15  Br  -0.011557  -0.001193  35.354998
 Mulliken charges:
               1
     1  Pt  -0.057826
     2  N   -0.103737
     3  O   -0.097068
     4  O   -0.091891
     5  N   -0.104049
     6  O   -0.092048
     7  O   -0.098485
     8  Cl  -0.467539
     9  N   -0.113275
    10  N   -0.113984
    11  O   -0.077403
    12  O   -0.099074
    13  O   -0.077238
    14  O   -0.098961
    15  Br  -0.307423
 Sum of Mulliken charges =  -2.00000
 Mulliken charges with hydrogens summed into heavy atoms:
               1
     1  Pt  -0.057826
     2  N   -0.103737
     3  O   -0.097068
     4  O   -0.091891
     5  N   -0.104049
     6  O   -0.092048
     7  O   -0.098485
     8  Cl  -0.467539
     9  N   -0.113275
    10  N   -0.113984
    11  O   -0.077403
    12  O   -0.099074
    13  O   -0.077238
    14  O   -0.098961
    15  Br  -0.307423
 Electronic spatial extent (au):  <R**2>=           3893.8720
 Charge=             -2.0000 electrons
 Dipole moment (field-independent basis, Debye):
    X=              2.0562    Y=             -0.1431    Z=             -0.7490  Tot=              2.1930
 Quadrupole moment (field-independent basis, Debye-Ang):
   XX=           -164.3753   YY=           -166.7238   ZZ=           -158.9601
   XY=             -0.4382   XZ=             -4.7474   YZ=              0.2786
 Traceless Quadrupole moment (field-independent basis, Debye-Ang):
   XX=             -1.0222   YY=             -3.3708   ZZ=              4.3929
   XY=             -0.4382   XZ=             -4.7474   YZ=              0.2786
 Octapole moment (field-independent basis, Debye-Ang**2):
  XXX=             51.9791  YYY=             -3.7953  ZZZ=            -17.9948  XYY=             17.9962
  XXY=             -0.9831  XXZ=             -4.1342  XZZ=             15.2281  YZZ=             -1.1432
  YYZ=             -6.2475  XYZ=             -0.1529
 Hexadecapole moment (field-independent basis, Debye-Ang**3):
 XXXX=          -1711.6778 YYYY=          -1835.8258 ZZZZ=          -1536.8744 XXXY=             -2.6237
 XXXZ=            -21.2516 YYYX=            -14.0049 YYYZ=             -1.6492 ZZZX=            -79.5493
 ZZZY=             13.3584 XXYY=           -561.6454 XXZZ=           -574.7725 YYZZ=           -636.0970
 XXYZ=             -3.5767 YYXZ=            -18.5738 ZZXY=             -5.0180
 N-N= 3.746436359665D+03 E-N=-5.722769082799D+04  KE= 2.064591752327D+04
 Calculating spin-rotation constants.
 Leave Link  601 at Sat Oct 30 09:01:19 2021, MaxMem=  2013265920 cpu:        10.4
 (Enter /scr/programas/g09/l9999.exe)
 1\1\GINC-NQTCM04\SP\RPBEPBE\Gen\Br1Cl1N4O8Pt1(2-)\DIEGO\30-Oct-2021\0\
 \#PBEPBE/gen scf=maxcycle=200 NMR=GIAO Scrf=(solvent=water)\\estrutura
  61\\-2,1\Pt,0,-0.196633,-0.014256,-0.069857\N,0,0.337395,-1.573224,-1
 .436194\O,0,1.347686,-1.46716,-2.107906\O,0,-0.39984,-2.544593,-1.5010
 49\N,0,0.139056,1.519217,-1.521881\O,0,-0.689474,2.413344,-1.597953\O,
 0,1.127308,1.474777,-2.232503\Cl,0,-2.453203,-0.17916,-0.861691\N,0,-0
 .748631,1.550047,1.283364\N,0,-0.550558,-1.552391,1.372465\O,0,0.25687
 4,-2.466602,1.439414\O,0,-1.540968,-1.494862,2.078435\O,0,-0.027886,2.
 534573,1.34035\O,0,-1.764509,1.438284,1.944929\Br,0,2.180784,0.155716,
 0.780102\\Version=EM64L-G09RevD.01\State=1-A\HF=-20959.7378252\RMSD=1.
 442e-09\Dipole=0.8089651,0.0562974,0.2946938\Quadrupole=-0.7599659,-2.
 506077,3.2660429,0.3257679,3.5295991,0.2070932\PG=C01 [X(Br1Cl1N4O8Pt1
 )]\\@


 TWO ROADS DIVERGED IN A WOOD, AND I--
 I TOOK THE ONE LESS TRAVELED BY,
 AND THAT HAS MADE ALL THE DIFFERENCE.

                       -- ROBERT FROST
 Job cpu time:       0 days  1 hours 56 minutes 53.8 seconds.
 File lengths (MBytes):  RWF=    225 Int=      0 D2E=      0 Chk=     18 Scr=      1
 Normal termination of Gaussian 09 at Sat Oct 30 09:01:19 2021.
